ITEM: TIMESTEP
105900
ITEM: NUMBER OF ATOMS
140
ITEM: BOX BOUNDS pp pp pp
0.0000000000000000e+00 7.5000000000000000e+02
0.0000000000000000e+00 7.5000000000000000e+02
0.0000000000000000e+00 7.5000000000000000e+02
ITEM: ATOMS id x y z
1 358.009 362.042 356.561
3 363.426 359.575 357.881
2 362.838 359.78 358.42
7 364.157 359.955 362.866
9 365.243 364.515 359.283
10 362.365 366.887 359.101
4 362.073 362.338 359.845
8 366.096 359.969 360.67
6 360.496 363.695 361.446
5 361.826 363.031 361.605
11 364.439 366.332 359.927
12 366.61 364.916 361.37
13 365.203 365.144 363.912
18 369.943 364.875 366.393
16 370.276 364.268 367.859
17 371.367 364.007 365.617
22 368.637 369.714 368.135
14 363.522 365.435 368.597
15 363.551 367.899 370.027
20 370.25 368.044 371.912
21 367.562 370.273 372.283
19 367.709 369.534 370.342
27 375.005 369.657 375.589
28 374.962 369.464 375.838
25 372.719 373.927 371.231
23 369.987 372.516 372.21
24 371.722 371.868 371.244
31 374.005 371.746 378.794
36 372.823 377.313 379.883
26 371.735 371.257 375.693
29 373.221 372.489 378.772
30 373.897 374.465 376.669
32 374.384 373.947 374.933
33 375.343 377.096 372.61
34 379.036 375.154 376.363
35 376.846 374.338 379.35
37 375.063 379.937 378.32
38 374.539 378.603 376.566
39 376.12 377.983 379.598
40 377.606 380.93 379.758
43 381.857 381.39 379.585
42 382.833 379.517 378.127
46 381.505 382.99 379.124
47 385.417 382.736 378.642
41 382.445 381.977 375.438
48 385.834 384.769 380.469
44 384.276 378.424 382.466
45 384.73 378.917 382.633
51 387.374 380.739 384.801
49 380.869 383.035 383.354
52 386.881 381.671 386.393
50 383.702 382.439 384.156
53 383.786 383.2 388.656
56 385.213 386.005 384.364
54 387.132 383.694 386.473
55 388.65 384.303 383.835
57 389.065 385.797 388.092
58 386.926 386.568 392.562
59 391.507 386.409 391.013
60 390.084 387.318 386.723
61 389.975 392.262 389.34
62 387.533 390.744 390.61
63 387.231 392.328 390.855
64 387.647 389.728 390.118
65 393.641 389.255 388.791
67 393.206 392.277 394.04
66 394.588 389.938 390.949
68 393.98 390.93 394.683
69 396.85 391.511 391.753
70 396.756 395.576 392.468
71 398.075 398.552 391.206
72 396.401 398.47 392.115
75 392.698 396.135 398.269
76 392.316 397.022 399.007
77 394.442 400.217 396.825
78 396.815 395.422 400.009
73 396.568 396.891 395.016
74 397.329 398.12 395.85
79 399.453 395.64 398.297
80 397.082 395.939 399.442
81 398.081 396.872 399.88
82 398.024 400.502 399.284
83 403.117 403.339 396.816
84 401.39 401.449 397.512
85 398.532 402.053 398.535
86 399.961 402.305 402.252
87 401.534 401.146 401.126
88 400.506 403.58 400.914
90 403.36 403.681 400.957
93 405.342 404.805 402.882
89 399.489 405.634 402.647
92 405.435 405.629 406.923
91 407.244 405.22 403.004
94 408.35 405.329 404.251
96 405.279 410.05 407.493
95 407.172 406.914 409.209
97 408.123 407.341 410.647
98 406.944 409.787 410.428
99 407.642 411.046 411.083
100 411.097 407.904 408.599
101 410.624 411.478 407.942
102 409.024 413.25 410.152
103 413.731 408.55 409.048
104 413.384 410.842 412.064
105 411.484 410.332 411.762
106 410.053 409.518 413.77
107 414.798 411.361 412.966
109 412.111 413.895 415.557
110 413.078 414.973 413.367
112 412.107 415.218 412.874
113 416.229 415.779 413.784
114 416.168 417.362 415.38
116 415.937 415.481 416.605
115 416.023 417.68 414.998
108 417.05 412.571 411.52
120 419.751 417.921 418.243
111 412.974 417.687 412.085
117 418.233 415.657 419.037
118 420.315 414.964 417.357
122 419.918 420.849 417.357
121 422.352 420.113 415.655
119 421.822 415.89 420.243
123 421.9 420.341 420.389
124 418.287 421.353 420.054
128 422.399 425.012 418.991
125 418.069 420.215 422.546
126 418.425 421.228 423.576
127 420.27 422.843 424.64
129 423.603 424.279 421.297
130 424.604 425.151 423.489
131 422.619 428.123 425.807
132 421.296 425.767 427.563
133 424.89 426.392 427.556
134 427.512 427.492 424.756
135 427.757 424.559 426.595
136 425.118 425.706 428.781
138 428.583 426.961 429.25
137 427.548 424.207 429.563
139 431.092 427.411 427.876
140 431.24 429.177 429.43
ITEM: TIMESTEP
106000
ITEM: NUMBER OF ATOMS
140
ITEM: BOX BOUNDS pp pp pp
0.0000000000000000e+00 7.5000000000000000e+02
0.0000000000000000e+00 7.5000000000000000e+02
0.0000000000000000e+00 7.5000000000000000e+02
ITEM: ATOMS id x y z
1 358.015 362.047 356.567
3 363.43 359.58 357.886
2 362.842 359.783 358.427
7 364.16 359.962 362.868
9 365.247 364.519 359.288
10 362.37 366.89 359.107
4 362.077 362.341 359.85
8 366.1 359.974 360.675
6 360.502 363.698 361.45
5 361.831 363.036 361.609
11 364.441 366.335 359.931
12 366.614 364.92 361.376
13 365.207 365.148 363.916
18 369.946 364.88 366.399
16 370.279 364.274 367.863
17 371.368 364.012 365.622
22 368.64 369.717 368.14
14 363.527 365.441 368.599
15 363.556 367.901 370.029
20 370.253 368.049 371.915
21 367.566 370.275 372.286
19 367.715 369.533 370.342
27 375.006 369.662 375.59
28 374.964 369.468 375.841
25 372.718 373.929 371.238
23 369.989 372.518 372.211
24 371.725 371.871 371.247
31 374.007 371.75 378.794
36 372.831 377.316 379.885
26 371.739 371.258 375.694
29 373.225 372.493 378.774
30 373.899 374.468 376.674
32 374.388 373.951 374.937
33 375.347 377.097 372.616
34 379.037 375.157 376.366
35 376.85 374.342 379.352
37 375.066 379.936 378.322
38 374.542 378.606 376.568
39 376.122 377.986 379.601
40 377.61 380.931 379.76
43 381.86 381.391 379.588
42 382.834 379.519 378.132
46 381.508 382.992 379.126
47 385.417 382.742 378.646
41 382.445 381.975 375.442
48 385.833 384.769 380.469
44 384.277 378.428 382.467
45 384.731 378.919 382.632
51 387.374 380.743 384.803
49 380.874 383.036 383.355
52 386.882 381.671 386.393
50 383.703 382.442 384.155
53 383.789 383.204 388.656
56 385.22 386.007 384.367
54 387.133 383.696 386.475
55 388.649 384.304 383.838
57 389.062 385.799 388.093
58 386.929 386.568 392.563
59 391.506 386.412 391.013
60 390.085 387.319 386.726
61 389.975 392.262 389.341
62 387.535 390.745 390.61
63 387.231 392.326 390.855
64 387.652 389.73 390.118
65 393.641 389.256 388.792
67 393.208 392.275 394.039
66 394.587 389.939 390.95
68 393.979 390.933 394.683
69 396.85 391.511 391.754
70 396.756 395.575 392.468
71 398.072 398.551 391.207
72 396.401 398.469 392.118
75 392.699 396.136 398.269
76 392.318 397.024 399.005
77 394.443 400.215 396.827
78 396.814 395.425 400.008
73 396.568 396.891 395.016
74 397.328 398.118 395.85
79 399.451 395.64 398.297
80 397.082 395.939 399.44
81 398.081 396.872 399.879
82 398.024 400.502 399.282
83 403.115 403.337 396.817
84 401.392 401.45 397.512
85 398.532 402.053 398.535
86 399.964 402.306 402.254
87 401.532 401.148 401.126
88 400.506 403.578 400.913
90 403.358 403.682 400.957
93 405.343 404.806 402.883
89 399.49 405.63 402.643
92 405.434 405.627 406.921
91 407.241 405.217 403.004
94 408.347 405.328 404.251
96 405.278 410.048 407.493
95 407.169 406.913 409.205
97 408.12 407.339 410.644
98 406.943 409.786 410.428
99 407.641 411.044 411.079
100 411.095 407.906 408.597
101 410.622 411.475 407.941
102 409.024 413.246 410.149
103 413.727 408.549 409.048
104 413.381 410.84 412.062
105 411.482 410.332 411.761
106 410.054 409.517 413.764
107 414.793 411.359 412.964
109 412.112 413.892 415.553
110 413.074 414.969 413.364
112 412.104 415.216 412.871
113 416.224 415.775 413.784
114 416.165 417.359 415.378
116 415.935 415.48 416.603
115 416.022 417.677 414.995
108 417.046 412.569 411.52
120 419.749 417.918 418.239
111 412.97 417.684 412.085
117 418.229 415.652 419.031
118 420.313 414.963 417.354
122 419.916 420.846 417.353
121 422.348 420.109 415.653
119 421.817 415.887 420.239
123 421.896 420.34 420.384
124 418.286 421.348 420.053
128 422.394 425.007 418.99
125 418.066 420.212 422.542
126 418.423 421.225 423.572
127 420.267 422.84 424.637
129 423.599 424.275 421.294
130 424.599 425.146 423.486
131 422.616 428.118 425.804
132 421.293 425.766 427.559
133 424.885 426.388 427.551
134 427.508 427.489 424.753
135 427.751 424.557 426.591
136 425.116 425.701 428.776
138 428.578 426.956 429.246
137 427.543 424.205 429.557
139 431.087 427.407 427.872
140 431.237 429.172 429.423
ITEM: TIMESTEP
106100
ITEM: NUMBER OF ATOMS
140
ITEM: BOX BOUNDS pp pp pp
0.0000000000000000e+00 7.5000000000000000e+02
0.0000000000000000e+00 7.5000000000000000e+02
0.0000000000000000e+00 7.5000000000000000e+02
ITEM: ATOMS id x y z
1 358.021 362.051 356.574
3 363.434 359.585 357.892
2 362.845 359.786 358.433
7 364.164 359.969 362.869
9 365.25 364.524 359.294
10 362.376 366.893 359.112
4 362.08 362.344 359.854
8 366.103 359.979 360.679
6 360.509 363.701 361.454
5 361.836 363.039 361.613
11 364.444 366.337 359.935
12 366.617 364.924 361.381
13 365.211 365.151 363.921
18 369.949 364.885 366.405
16 370.281 364.281 367.867
17 371.369 364.017 365.627
22 368.643 369.721 368.146
14 363.531 365.447 368.602
15 363.561 367.903 370.031
20 370.257 368.053 371.917
21 367.57 370.277 372.289
19 367.721 369.533 370.341
27 375.006 369.667 375.591
28 374.966 369.472 375.844
25 372.718 373.931 371.246
23 369.992 372.52 372.213
24 371.727 371.874 371.249
31 374.01 371.754 378.795
36 372.839 377.319 379.887
26 371.743 371.26 375.696
29 373.229 372.497 378.775
30 373.902 374.471 376.68
32 374.391 373.954 374.94
33 375.35 377.099 372.621
34 379.038 375.16 376.369
35 376.854 374.346 379.353
37 375.068 379.936 378.324
38 374.544 378.609 376.57
39 376.124 377.989 379.603
40 377.613 380.932 379.761
43 381.862 381.391 379.591
42 382.836 379.522 378.137
46 381.511 382.994 379.129
47 385.417 382.748 378.65
41 382.445 381.973 375.446
48 385.831 384.769 380.47
44 384.278 378.433 382.467
45 384.732 378.921 382.632
51 387.373 380.747 384.805
49 380.878 383.037 383.356
52 386.883 381.671 386.393
50 383.704 382.445 384.155
53 383.793 383.207 388.654
56 385.226 386.009 384.37
54 387.135 383.697 386.476
55 388.649 384.306 383.84
57 389.06 385.8 388.093
58 386.932 386.569 392.563
59 391.504 386.415 391.014
60 390.086 387.319 386.728
61 389.975 392.263 389.342
62 387.536 390.746 390.61
63 387.231 392.325 390.853
64 387.657 389.732 390.119
65 393.64 389.257 388.793
67 393.21 392.274 394.039
66 394.587 389.939 390.951
68 393.979 390.935 394.683
69 396.85 391.511 391.755
70 396.757 395.575 392.468
71 398.07 398.55 391.208
72 396.401 398.468 392.121
75 392.701 396.136 398.269
76 392.319 397.026 399.002
77 394.443 400.213 396.828
78 396.814 395.427 400.007
73 396.568 396.889 395.017
74 397.326 398.116 395.85
79 399.449 395.64 398.297
80 397.081 395.939 399.438
81 398.081 396.872 399.878
82 398.023 400.501 399.28
83 403.113 403.334 396.818
84 401.393 401.452 397.511
85 398.533 402.054 398.535
86 399.966 402.307 402.255
87 401.531 401.15 401.125
88 400.506 403.576 400.912
90 403.356 403.682 400.957
93 405.344 404.808 402.883
89 399.491 405.626 402.639
92 405.433 405.624 406.918
91 407.239 405.214 403.005
94 408.344 405.326 404.251
96 405.277 410.046 407.494
95 407.165 406.913 409.201
97 408.116 407.337 410.64
98 406.942 409.785 410.428
99 407.64 411.042 411.076
100 411.094 407.907 408.595
101 410.619 411.471 407.939
102 409.024 413.242 410.145
103 413.722 408.549 409.047
104 413.378 410.839 412.06
105 411.48 410.331 411.759
106 410.054 409.516 413.759
107 414.789 411.357 412.961
109 412.113 413.89 415.548
110 413.07 414.966 413.362
112 412.101 415.215 412.869
113 416.22 415.772 413.783
114 416.162 417.355 415.376
116 415.933 415.479 416.601
115 416.02 417.674 414.993
108 417.042 412.567 411.52
120 419.747 417.914 418.236
111 412.966 417.68 412.084
117 418.225 415.648 419.024
118 420.31 414.961 417.351
122 419.914 420.842 417.348
121 422.343 420.106 415.65
119 421.812 415.884 420.235
123 421.891 420.339 420.379
124 418.285 421.343 420.052
128 422.39 425.003 418.989
125 418.062 420.209 422.538
126 418.421 421.221 423.568
127 420.264 422.838 424.634
129 423.595 424.272 421.29
130 424.593 425.141 423.482
131 422.612 428.113 425.801
132 421.291 425.765 427.554
133 424.88 426.384 427.546
134 427.505 427.485 424.75
135 427.745 424.554 426.587
136 425.115 425.697 428.771
138 428.573 426.951 429.242
137 427.539 424.202 429.552
139 431.083 427.403 427.869
140 431.234 429.167 429.416
ITEM: TIMESTEP
106200
ITEM: NUMBER OF ATOMS
140
ITEM: BOX BOUNDS pp pp pp
0.0000000000000000e+00 7.5000000000000000e+02
0.0000000000000000e+00 7.5000000000000000e+02
0.0000000000000000e+00 7.5000000000000000e+02
ITEM: ATOMS id x y z
1 358.028 362.056 356.581
3 363.438 359.59 357.897
2 362.848 359.789 358.439
7 364.167 359.976 362.87
9 365.254 364.528 359.299
10 362.381 366.897 359.117
4 362.084 362.347 359.859
8 366.107 359.984 360.684
6 360.515 363.704 361.458
5 361.842 363.043 361.616
11 364.446 366.339 359.939
12 366.62 364.927 361.386
13 365.214 365.155 363.925
18 369.951 364.891 366.411
16 370.284 364.287 367.87
17 371.371 364.021 365.632
22 368.646 369.724 368.152
14 363.536 365.453 368.605
15 363.565 367.905 370.033
20 370.26 368.057 371.92
21 367.573 370.279 372.292
19 367.726 369.532 370.341
27 375.006 369.672 375.592
28 374.967 369.476 375.846
25 372.718 373.933 371.253
23 369.994 372.522 372.215
24 371.73 371.876 371.252
31 374.012 371.759 378.795
36 372.847 377.322 379.889
26 371.747 371.262 375.697
29 373.233 372.501 378.776
30 373.904 374.474 376.686
32 374.395 373.956 374.943
33 375.353 377.1 372.626
34 379.038 375.164 376.372
35 376.857 374.35 379.355
37 375.071 379.936 378.326
38 374.546 378.612 376.573
39 376.125 377.992 379.606
40 377.616 380.932 379.763
43 381.864 381.391 379.593
42 382.837 379.524 378.142
46 381.514 382.997 379.132
47 385.416 382.753 378.655
41 382.445 381.971 375.45
48 385.83 384.769 380.471
44 384.279 378.437 382.468
45 384.732 378.923 382.631
51 387.373 380.75 384.807
49 380.883 383.038 383.356
52 386.884 381.672 386.392
50 383.705 382.448 384.155
53 383.796 383.21 388.653
56 385.232 386.011 384.372
54 387.136 383.699 386.478
55 388.649 384.307 383.842
57 389.057 385.802 388.093
58 386.935 386.569 392.564
59 391.503 386.418 391.015
60 390.087 387.32 386.73
61 389.975 392.263 389.344
62 387.537 390.746 390.61
63 387.231 392.323 390.852
64 387.662 389.733 390.119
65 393.639 389.257 388.794
67 393.212 392.273 394.038
66 394.587 389.94 390.952
68 393.979 390.937 394.682
69 396.85 391.512 391.756
70 396.757 395.575 392.469
71 398.067 398.55 391.209
72 396.401 398.467 392.124
75 392.702 396.137 398.27
76 392.32 397.029 398.999
77 394.444 400.211 396.83
78 396.813 395.43 400.006
73 396.568 396.888 395.017
74 397.325 398.115 395.85
79 399.447 395.64 398.297
80 397.08 395.94 399.437
81 398.081 396.872 399.876
82 398.023 400.501 399.277
83 403.111 403.332 396.819
84 401.394 401.453 397.511
85 398.533 402.054 398.535
86 399.968 402.308 402.256
87 401.53 401.152 401.125
88 400.505 403.574 400.911
90 403.354 403.682 400.957
93 405.345 404.809 402.883
89 399.493 405.621 402.635
92 405.432 405.622 406.915
91 407.236 405.211 403.005
94 408.341 405.325 404.25
96 405.276 410.044 407.494
95 407.162 406.912 409.198
97 408.113 407.335 410.637
98 406.94 409.784 410.428
99 407.64 411.041 411.073
100 411.092 407.908 408.593
101 410.616 411.468 407.938
102 409.024 413.239 410.141
103 413.717 408.549 409.046
104 413.374 410.837 412.058
105 411.479 410.331 411.758
106 410.055 409.516 413.754
107 414.785 411.355 412.959
109 412.114 413.888 415.544
110 413.066 414.962 413.359
112 412.098 415.213 412.867
113 416.216 415.768 413.782
114 416.159 417.351 415.374
116 415.931 415.478 416.599
115 416.019 417.671 414.991
108 417.037 412.566 411.521
120 419.744 417.91 418.234
111 412.962 417.677 412.084
117 418.221 415.643 419.018
118 420.308 414.96 417.349
122 419.912 420.839 417.344
121 422.339 420.102 415.648
119 421.807 415.881 420.23
123 421.887 420.338 420.374
124 418.284 421.339 420.051
128 422.386 424.998 418.988
125 418.059 420.206 422.534
126 418.419 421.218 423.563
127 420.261 422.835 424.632
129 423.591 424.268 421.287
130 424.588 425.137 423.479
131 422.609 428.108 425.798
132 421.288 425.765 427.549
133 424.875 426.381 427.541
134 427.501 427.482 424.747
135 427.739 424.552 426.583
136 425.113 425.693 428.766
138 428.569 426.946 429.237
137 427.534 424.199 429.547
139 431.078 427.398 427.865
140 431.231 429.163 429.408
ITEM: TIMESTEP
106300
ITEM: NUMBER OF ATOMS
140
ITEM: BOX BOUNDS pp pp pp
0.0000000000000000e+00 7.5000000000000000e+02
0.0000000000000000e+00 7.5000000000000000e+02
0.0000000000000000e+00 7.5000000000000000e+02
ITEM: ATOMS id x y z
1 358.034 362.061 356.587
3 363.442 359.595 357.903
2 362.851 359.792 358.445
7 364.17 359.984 362.871
9 365.258 364.532 359.304
10 362.386 366.9 359.122
4 362.087 362.35 359.864
8 366.111 359.989 360.688
6 360.521 363.707 361.462
5 361.847 363.047 361.62
11 364.448 366.341 359.943
12 366.623 364.931 361.391
13 365.218 365.158 363.93
18 369.954 364.896 366.417
16 370.286 364.294 367.874
17 371.372 364.026 365.637
22 368.648 369.727 368.158
14 363.541 365.459 368.607
15 363.57 367.907 370.035
20 370.263 368.061 371.923
21 367.577 370.281 372.294
19 367.732 369.532 370.341
27 375.006 369.676 375.593
28 374.969 369.48 375.849
25 372.717 373.936 371.26
23 369.996 372.525 372.217
24 371.733 371.879 371.254
31 374.014 371.764 378.796
36 372.855 377.324 379.892
26 371.751 371.264 375.698
29 373.237 372.505 378.776
30 373.906 374.477 376.691
32 374.399 373.959 374.946
33 375.356 377.1 372.632
34 379.039 375.167 376.376
35 376.861 374.354 379.357
37 375.074 379.936 378.327
38 374.549 378.614 376.575
39 376.127 377.995 379.608
40 377.619 380.933 379.764
43 381.867 381.392 379.596
42 382.839 379.526 378.147
46 381.517 382.999 379.134
47 385.415 382.759 378.659
41 382.445 381.97 375.454
48 385.829 384.769 380.471
44 384.28 378.441 382.469
45 384.732 378.925 382.631
51 387.372 380.754 384.808
49 380.888 383.039 383.357
52 386.885 381.672 386.392
50 383.706 382.451 384.154
53 383.8 383.213 388.652
56 385.238 386.013 384.375
54 387.138 383.7 386.479
55 388.649 384.309 383.845
57 389.055 385.803 388.093
58 386.937 386.569 392.564
59 391.501 386.421 391.016
60 390.088 387.32 386.732
61 389.975 392.263 389.345
62 387.538 390.747 390.609
63 387.231 392.322 390.851
64 387.667 389.735 390.119
65 393.638 389.258 388.795
67 393.215 392.271 394.038
66 394.586 389.94 390.953
68 393.979 390.94 394.682
69 396.849 391.512 391.757
70 396.758 395.574 392.469
71 398.064 398.549 391.211
72 396.401 398.467 392.128
75 392.704 396.137 398.27
76 392.321 397.031 398.997
77 394.444 400.209 396.831
78 396.813 395.432 400.005
73 396.568 396.887 395.017
74 397.324 398.113 395.85
79 399.445 395.64 398.296
80 397.079 395.94 399.435
81 398.08 396.872 399.875
82 398.023 400.5 399.275
83 403.11 403.33 396.82
84 401.396 401.454 397.511
85 398.533 402.054 398.535
86 399.971 402.308 402.257
87 401.528 401.154 401.124
88 400.505 403.573 400.91
90 403.353 403.682 400.957
93 405.346 404.811 402.883
89 399.496 405.617 402.631
92 405.431 405.619 406.912
91 407.234 405.208 403.004
94 408.339 405.323 404.25
96 405.275 410.042 407.494
95 407.159 406.912 409.194
97 408.109 407.334 410.633
98 406.939 409.783 410.428
99 407.639 411.039 411.07
100 411.09 407.909 408.591
101 410.614 411.465 407.935
102 409.025 413.235 410.137
103 413.713 408.549 409.045
104 413.37 410.835 412.056
105 411.477 410.33 411.757
106 410.055 409.515 413.749
107 414.781 411.353 412.956
109 412.116 413.885 415.54
110 413.062 414.958 413.357
112 412.095 415.212 412.865
113 416.212 415.765 413.781
114 416.156 417.348 415.372
116 415.929 415.478 416.597
115 416.017 417.668 414.989
108 417.033 412.564 411.521
120 419.743 417.907 418.231
111 412.958 417.674 412.084
117 418.217 415.638 419.012
118 420.306 414.959 417.346
122 419.91 420.836 417.34
121 422.335 420.099 415.646
119 421.802 415.878 420.226
123 421.882 420.337 420.37
124 418.282 421.334 420.051
128 422.381 424.994 418.987
125 418.056 420.203 422.529
126 418.417 421.214 423.559
127 420.257 422.832 424.629
129 423.587 424.265 421.284
130 424.583 425.132 423.476
131 422.606 428.103 425.794
132 421.285 425.763 427.545
133 424.87 426.377 427.537
134 427.497 427.479 424.744
135 427.734 424.549 426.579
136 425.111 425.689 428.761
138 428.564 426.942 429.234
137 427.53 424.197 429.542
139 431.074 427.394 427.861
140 431.228 429.158 429.401
ITEM: TIMESTEP
106400
ITEM: NUMBER OF ATOMS
140
ITEM: BOX BOUNDS pp pp pp
0.0000000000000000e+00 7.5000000000000000e+02
0.0000000000000000e+00 7.5000000000000000e+02
0.0000000000000000e+00 7.5000000000000000e+02
ITEM: ATOMS id x y z
1 358.04 362.065 356.593
3 363.447 359.6 357.908
2 362.854 359.796 358.451
7 364.174 359.991 362.872
9 365.261 364.537 359.309
10 362.391 366.904 359.127
4 362.091 362.353 359.869
8 366.115 359.994 360.693
6 360.527 363.71 361.466
5 361.852 363.051 361.624
11 364.45 366.343 359.947
12 366.626 364.934 361.396
13 365.222 365.161 363.934
18 369.956 364.901 366.423
16 370.288 364.3 367.877
17 371.373 364.03 365.641
22 368.651 369.731 368.163
14 363.545 365.465 368.61
15 363.575 367.908 370.036
20 370.266 368.066 371.926
21 367.581 370.284 372.297
19 367.738 369.531 370.341
27 375.006 369.681 375.594
28 374.97 369.484 375.852
25 372.716 373.938 371.267
23 369.998 372.526 372.219
24 371.736 371.882 371.257
31 374.016 371.769 378.797
36 372.863 377.327 379.894
26 371.754 371.265 375.699
29 373.241 372.509 378.777
30 373.908 374.48 376.697
32 374.402 373.962 374.95
33 375.358 377.101 372.637
34 379.04 375.17 376.379
35 376.864 374.357 379.359
37 375.077 379.935 378.329
38 374.551 378.617 376.577
39 376.129 377.998 379.61
40 377.622 380.934 379.766
43 381.869 381.392 379.598
42 382.841 379.529 378.152
46 381.519 383.002 379.137
47 385.415 382.764 378.663
41 382.445 381.968 375.458
48 385.827 384.769 380.472
44 384.281 378.445 382.469
45 384.733 378.926 382.631
51 387.372 380.758 384.81
49 380.893 383.041 383.358
52 386.886 381.672 386.392
50 383.706 382.454 384.154
53 383.803 383.216 388.65
56 385.245 386.015 384.378
54 387.139 383.701 386.48
55 388.648 384.31 383.847
57 389.053 385.805 388.093
58 386.94 386.569 392.564
59 391.5 386.424 391.017
60 390.089 387.32 386.734
61 389.975 392.263 389.346
62 387.539 390.748 390.609
63 387.23 392.32 390.85
64 387.671 389.736 390.12
65 393.637 389.259 388.797
67 393.217 392.269 394.037
66 394.586 389.941 390.953
68 393.979 390.942 394.681
69 396.849 391.513 391.758
70 396.759 395.574 392.47
71 398.062 398.549 391.212
72 396.401 398.466 392.131
75 392.706 396.138 398.271
76 392.322 397.033 398.994
77 394.444 400.207 396.833
78 396.812 395.435 400.004
73 396.568 396.886 395.017
74 397.323 398.112 395.85
79 399.443 395.64 398.296
80 397.078 395.941 399.434
81 398.08 396.873 399.875
82 398.023 400.5 399.273
83 403.108 403.328 396.822
84 401.397 401.456 397.51
85 398.534 402.055 398.535
86 399.973 402.308 402.258
87 401.527 401.157 401.124
88 400.505 403.571 400.909
90 403.352 403.683 400.957
93 405.347 404.812 402.883
89 399.498 405.613 402.627
92 405.431 405.617 406.909
91 407.231 405.205 403.004
94 408.336 405.322 404.25
96 405.275 410.04 407.495
95 407.156 406.912 409.19
97 408.106 407.333 410.63
98 406.938 409.782 410.428
99 407.638 411.038 411.067
100 411.088 407.91 408.588
101 410.611 411.461 407.933
102 409.025 413.231 410.134
103 413.708 408.549 409.044
104 413.367 410.833 412.054
105 411.476 410.33 411.756
106 410.056 409.515 413.744
107 414.777 411.351 412.954
109 412.117 413.883 415.536
110 413.058 414.955 413.355
112 412.092 415.211 412.863
113 416.208 415.762 413.78
114 416.153 417.344 415.37
116 415.928 415.477 416.594
115 416.016 417.664 414.987
108 417.029 412.563 411.522
120 419.741 417.904 418.228
111 412.954 417.671 412.084
117 418.213 415.634 419.006
118 420.304 414.957 417.344
122 419.908 420.832 417.336
121 422.33 420.095 415.643
119 421.798 415.875 420.222
123 421.878 420.335 420.365
124 418.281 421.33 420.05
128 422.377 424.99 418.987
125 418.053 420.2 422.526
126 418.415 421.211 423.555
127 420.254 422.829 424.626
129 423.583 424.262 421.281
130 424.578 425.127 423.472
131 422.602 428.098 425.791
132 421.282 425.762 427.541
133 424.865 426.373 427.532
134 427.494 427.475 424.741
135 427.728 424.547 426.575
136 425.11 425.684 428.756
138 428.559 426.937 429.23
137 427.526 424.194 429.537
139 431.07 427.39 427.858
140 431.225 429.153 429.393
ITEM: TIMESTEP
106500
ITEM: NUMBER OF ATOMS
140
ITEM: BOX BOUNDS pp pp pp
0.0000000000000000e+00 7.5000000000000000e+02
0.0000000000000000e+00 7.5000000000000000e+02
0.0000000000000000e+00 7.5000000000000000e+02
ITEM: ATOMS id x y z
1 358.046 362.07 356.599
3 363.451 359.605 357.913
2 362.857 359.799 358.457
7 364.177 359.998 362.873
9 365.265 364.54 359.315
10 362.395 366.907 359.133
4 362.094 362.356 359.874
8 366.118 359.999 360.697
6 360.533 363.713 361.47
5 361.857 363.054 361.628
11 364.452 366.345 359.951
12 366.629 364.938 361.401
13 365.226 365.165 363.938
18 369.959 364.906 366.429
16 370.291 364.306 367.881
17 371.374 364.035 365.646
22 368.653 369.734 368.168
14 363.549 365.471 368.612
15 363.58 367.91 370.038
20 370.269 368.07 371.928
21 367.585 370.286 372.3
19 367.744 369.53 370.341
27 375.006 369.685 375.594
28 374.972 369.487 375.855
25 372.715 373.94 371.274
23 370 372.528 372.22
24 371.738 371.886 371.259
31 374.017 371.773 378.797
36 372.871 377.33 379.896
26 371.758 371.267 375.7
29 373.244 372.513 378.778
30 373.91 374.483 376.702
32 374.406 373.965 374.953
33 375.361 377.102 372.642
34 379.041 375.173 376.382
35 376.868 374.361 379.361
37 375.08 379.935 378.331
38 374.553 378.619 376.579
39 376.131 378.001 379.613
40 377.625 380.935 379.767
43 381.872 381.393 379.601
42 382.842 379.532 378.157
46 381.522 383.004 379.139
47 385.414 382.769 378.667
41 382.445 381.967 375.462
48 385.826 384.769 380.472
44 384.282 378.449 382.47
45 384.733 378.928 382.63
51 387.372 380.761 384.812
49 380.897 383.042 383.358
52 386.887 381.673 386.392
50 383.707 382.457 384.154
53 383.806 383.219 388.649
56 385.251 386.017 384.38
54 387.141 383.703 386.481
55 388.647 384.312 383.85
57 389.051 385.806 388.093
58 386.943 386.57 392.565
59 391.499 386.427 391.017
60 390.09 387.321 386.737
61 389.975 392.264 389.347
62 387.54 390.748 390.608
63 387.23 392.318 390.849
64 387.676 389.737 390.12
65 393.636 389.26 388.798
67 393.219 392.267 394.037
66 394.585 389.941 390.954
68 393.979 390.944 394.68
69 396.848 391.513 391.759
70 396.76 395.573 392.47
71 398.059 398.548 391.213
72 396.401 398.465 392.134
75 392.707 396.138 398.271
76 392.323 397.035 398.991
77 394.445 400.206 396.834
78 396.812 395.437 400.002
73 396.569 396.885 395.017
74 397.322 398.11 395.85
79 399.442 395.64 398.296
80 397.077 395.941 399.433
81 398.08 396.873 399.874
82 398.024 400.499 399.27
83 403.106 403.325 396.823
84 401.398 401.457 397.509
85 398.535 402.055 398.535
86 399.975 402.309 402.259
87 401.525 401.159 401.124
88 400.505 403.57 400.908
90 403.35 403.683 400.958
93 405.347 404.813 402.884
89 399.5 405.609 402.622
92 405.43 405.614 406.906
91 407.229 405.202 403.004
94 408.333 405.321 404.249
96 405.274 410.038 407.495
95 407.152 406.911 409.187
97 408.102 407.331 410.627
98 406.937 409.782 410.427
99 407.638 411.037 411.063
100 411.087 407.911 408.586
101 410.609 411.458 407.93
102 409.025 413.227 410.13
103 413.703 408.549 409.043
104 413.363 410.832 412.051
105 411.474 410.329 411.754
106 410.056 409.514 413.738
107 414.773 411.349 412.951
109 412.119 413.88 415.533
110 413.054 414.951 413.353
112 412.089 415.21 412.861
113 416.204 415.759 413.779
114 416.15 417.341 415.368
116 415.927 415.476 416.592
115 416.015 417.661 414.985
108 417.024 412.561 411.522
120 419.739 417.901 418.226
111 412.95 417.667 412.083
117 418.209 415.629 419
118 420.301 414.956 417.341
122 419.906 420.829 417.332
121 422.326 420.091 415.641
119 421.793 415.873 420.218
123 421.873 420.334 420.36
124 418.28 421.326 420.049
128 422.373 424.985 418.986
125 418.051 420.196 422.522
126 418.413 421.207 423.552
127 420.251 422.827 424.623
129 423.579 424.259 421.278
130 424.574 425.123 423.469
131 422.599 428.094 425.788
132 421.28 425.761 427.536
133 424.86 426.369 427.527
134 427.49 427.472 424.738
135 427.723 424.545 426.571
136 425.109 425.681 428.751
138 428.555 426.932 429.226
137 427.522 424.192 429.532
139 431.066 427.387 427.854
140 431.222 429.148 429.385
ITEM: TIMESTEP
106600
ITEM: NUMBER OF ATOMS
140
ITEM: BOX BOUNDS pp pp pp
0.0000000000000000e+00 7.5000000000000000e+02
0.0000000000000000e+00 7.5000000000000000e+02
0.0000000000000000e+00 7.5000000000000000e+02
ITEM: ATOMS id x y z
1 358.052 362.074 356.605
3 363.455 359.609 357.918
2 362.859 359.802 358.463
7 364.181 360.005 362.874
9 365.268 364.544 359.32
10 362.4 366.91 359.138
4 362.097 362.359 359.879
8 366.122 360.004 360.702
6 360.539 363.716 361.474
5 361.861 363.057 361.632
11 364.455 366.347 359.955
12 366.631 364.941 361.406
13 365.229 365.168 363.943
18 369.961 364.911 366.435
16 370.293 364.312 367.884
17 371.374 364.039 365.651
22 368.656 369.738 368.174
14 363.554 365.477 368.613
15 363.584 367.912 370.04
20 370.272 368.074 371.93
21 367.589 370.288 372.302
19 367.75 369.529 370.341
27 375.005 369.69 375.595
28 374.974 369.491 375.858
25 372.714 373.943 371.281
23 370.002 372.53 372.222
24 371.74 371.889 371.262
31 374.019 371.778 378.797
36 372.879 377.333 379.899
26 371.761 371.269 375.701
29 373.248 372.516 378.779
30 373.912 374.486 376.707
32 374.41 373.967 374.956
33 375.364 377.102 372.647
34 379.042 375.175 376.386
35 376.872 374.364 379.363
37 375.083 379.935 378.332
38 374.555 378.622 376.581
39 376.132 378.004 379.615
40 377.628 380.935 379.769
43 381.874 381.393 379.604
42 382.844 379.534 378.162
46 381.525 383.006 379.142
47 385.414 382.774 378.671
41 382.445 381.965 375.467
48 385.824 384.769 380.473
44 384.283 378.453 382.47
45 384.733 378.93 382.63
51 387.371 380.764 384.813
49 380.902 383.042 383.358
52 386.888 381.673 386.391
50 383.708 382.46 384.153
53 383.81 383.222 388.647
56 385.257 386.018 384.383
54 387.142 383.704 386.482
55 388.646 384.313 383.852
57 389.049 385.808 388.093
58 386.945 386.57 392.565
59 391.498 386.43 391.018
60 390.09 387.321 386.739
61 389.975 392.264 389.348
62 387.541 390.749 390.608
63 387.229 392.317 390.848
64 387.68 389.739 390.12
65 393.635 389.261 388.8
67 393.221 392.265 394.036