ITEM: TIMESTEP
0
ITEM: NUMBER OF ATOMS
140
ITEM: BOX BOUNDS pp pp pp
0.0000000000000000e+00 7.5000000000000000e+02
0.0000000000000000e+00 7.5000000000000000e+02
0.0000000000000000e+00 7.5000000000000000e+02
ITEM: ATOMS id x y z
1 187.5 187.5 187.5
2 190.471 190.471 190.471
3 193.441 193.441 193.441
4 196.412 196.412 196.412
5 199.383 199.383 199.383
6 202.353 202.353 202.353
7 205.324 205.324 205.324
8 208.295 208.295 208.295
9 211.265 211.265 211.265
10 214.236 214.236 214.236
11 217.207 217.207 217.207
12 220.177 220.177 220.177
13 223.148 223.148 223.148
14 226.118 226.118 226.118
15 229.089 229.089 229.089
16 232.06 232.06 232.06
17 235.03 235.03 235.03
18 238.001 238.001 238.001
19 240.972 240.972 240.972
20 243.942 243.942 243.942
21 246.913 246.913 246.913
22 249.884 249.884 249.884
23 252.854 252.854 252.854
24 255.825 255.825 255.825
25 258.796 258.796 258.796
26 261.766 261.766 261.766
27 264.737 264.737 264.737
28 267.708 267.708 267.708
29 270.678 270.678 270.678
30 273.649 273.649 273.649
31 276.62 276.62 276.62
32 279.59 279.59 279.59
33 282.561 282.561 282.561
34 285.532 285.532 285.532
35 288.502 288.502 288.502
36 291.473 291.473 291.473
37 294.444 294.444 294.444
38 297.414 297.414 297.414
39 300.385 300.385 300.385
40 303.355 303.355 303.355
41 306.326 306.326 306.326
42 309.297 309.297 309.297
43 312.267 312.267 312.267
44 315.238 315.238 315.238
45 318.209 318.209 318.209
46 321.179 321.179 321.179
47 324.15 324.15 324.15
48 327.121 327.121 327.121
49 330.091 330.091 330.091
50 333.062 333.062 333.062
51 336.033 336.033 336.033
52 339.003 339.003 339.003
53 341.974 341.974 341.974
54 344.945 344.945 344.945
55 347.915 347.915 347.915
56 350.886 350.886 350.886
57 353.857 353.857 353.857
58 356.827 356.827 356.827
59 359.798 359.798 359.798
60 362.769 362.769 362.769
61 365.739 365.739 365.739
62 368.71 368.71 368.71
63 371.681 371.681 371.681
64 374.651 374.651 374.651
65 377.622 377.622 377.622
66 380.592 380.592 380.592
67 383.563 383.563 383.563
68 386.534 386.534 386.534
69 389.504 389.504 389.504
70 392.475 392.475 392.475
71 395.446 395.446 395.446
72 398.416 398.416 398.416
73 401.387 401.387 401.387
74 404.358 404.358 404.358
75 407.328 407.328 407.328
76 410.299 410.299 410.299
77 413.27 413.27 413.27
78 416.24 416.24 416.24
79 419.211 419.211 419.211
80 422.182 422.182 422.182
81 425.152 425.152 425.152
82 428.123 428.123 428.123
83 431.094 431.094 431.094
84 434.064 434.064 434.064
85 437.035 437.035 437.035
86 440.006 440.006 440.006
87 442.976 442.976 442.976
88 445.947 445.947 445.947
89 448.918 448.918 448.918
90 451.888 451.888 451.888
91 454.859 454.859 454.859
92 457.829 457.829 457.829
93 460.8 460.8 460.8
94 463.771 463.771 463.771
95 466.741 466.741 466.741
96 469.712 469.712 469.712
97 472.683 472.683 472.683
98 475.653 475.653 475.653
99 478.624 478.624 478.624
100 481.595 481.595 481.595
101 484.565 484.565 484.565
102 487.536 487.536 487.536
103 490.507 490.507 490.507
104 493.477 493.477 493.477
105 496.448 496.448 496.448
106 499.419 499.419 499.419
107 502.389 502.389 502.389
108 505.36 505.36 505.36
109 508.331 508.331 508.331
110 511.301 511.301 511.301
111 514.272 514.272 514.272
112 517.243 517.243 517.243
113 520.213 520.213 520.213
114 523.184 523.184 523.184
115 526.155 526.155 526.155
116 529.125 529.125 529.125
117 532.096 532.096 532.096
118 535.066 535.066 535.066
119 538.037 538.037 538.037
120 541.008 541.008 541.008
121 543.978 543.978 543.978
122 546.949 546.949 546.949
123 549.92 549.92 549.92
124 552.89 552.89 552.89
125 555.861 555.861 555.861
126 558.832 558.832 558.832
127 561.802 561.802 561.802
128 564.773 564.773 564.773
129 567.744 567.744 567.744
130 570.714 570.714 570.714
131 573.685 573.685 573.685
132 576.656 576.656 576.656
133 579.626 579.626 579.626
134 582.597 582.597 582.597
135 585.568 585.568 585.568
136 588.538 588.538 588.538
137 591.509 591.509 591.509
138 594.48 594.48 594.48
139 597.45 597.45 597.45
140 600.421 600.421 600.421
ITEM: TIMESTEP
10
ITEM: NUMBER OF ATOMS
140
ITEM: BOX BOUNDS pp pp pp
0.0000000000000000e+00 7.5000000000000000e+02
0.0000000000000000e+00 7.5000000000000000e+02
0.0000000000000000e+00 7.5000000000000000e+02
ITEM: ATOMS id x y z
1 188.5 188.5 188.5
2 190.637 190.637 190.637
3 193.46 193.46 193.46
4 196.413 196.413 196.413
5 199.383 199.383 199.383
6 202.353 202.353 202.353
7 205.324 205.324 205.324
8 208.295 208.295 208.295
9 211.265 211.265 211.265
10 214.236 214.236 214.236
11 217.207 217.207 217.207
12 220.177 220.177 220.177
13 223.148 223.148 223.148
14 226.118 226.118 226.118
15 229.089 229.089 229.089
16 232.06 232.06 232.06
17 235.03 235.03 235.03
18 238.001 238.001 238.001
19 240.972 240.972 240.972
20 243.942 243.942 243.942
21 246.913 246.913 246.913
22 249.884 249.884 249.884
23 252.854 252.854 252.854
24 255.825 255.825 255.825
25 258.796 258.796 258.796
26 261.766 261.766 261.766
27 264.737 264.737 264.737
28 267.708 267.708 267.708
29 270.678 270.678 270.678
30 273.649 273.649 273.649
31 276.62 276.62 276.62
32 279.59 279.59 279.59
33 282.561 282.561 282.561
34 285.532 285.532 285.532
35 288.502 288.502 288.502
36 291.473 291.473 291.473
37 294.444 294.444 294.444
38 297.414 297.414 297.414
39 300.385 300.385 300.385
40 303.355 303.355 303.355
41 306.326 306.326 306.326
42 309.297 309.297 309.297
43 312.267 312.267 312.267
44 315.238 315.238 315.238
45 318.209 318.209 318.209
46 321.179 321.179 321.179
47 324.15 324.15 324.15
48 327.121 327.121 327.121
49 330.091 330.091 330.091
50 333.062 333.062 333.062
51 336.033 336.033 336.033
52 339.003 339.003 339.003
53 341.974 341.974 341.974
54 344.945 344.945 344.945
55 347.915 347.915 347.915
56 350.886 350.886 350.886
57 353.857 353.857 353.857
58 356.827 356.827 356.827
59 359.798 359.798 359.798
60 362.769 362.769 362.769
61 365.739 365.739 365.739
62 368.71 368.71 368.71
63 371.681 371.681 371.681
64 374.651 374.651 374.651
65 377.622 377.622 377.622
66 380.592 380.592 380.592
67 383.563 383.563 383.563
68 386.534 386.534 386.534
69 389.504 389.504 389.504
70 392.475 392.475 392.475
71 395.446 395.446 395.446
72 398.416 398.416 398.416
73 401.387 401.387 401.387
74 404.358 404.358 404.358
75 407.328 407.328 407.328
76 410.299 410.299 410.299
77 413.27 413.27 413.27
78 416.24 416.24 416.24
79 419.211 419.211 419.211
80 422.182 422.182 422.182
81 425.152 425.152 425.152
82 428.123 428.123 428.123
83 431.094 431.094 431.094
84 434.064 434.064 434.064
85 437.035 437.035 437.035
86 440.006 440.006 440.006
87 442.976 442.976 442.976
88 445.947 445.947 445.947
89 448.918 448.918 448.918
90 451.888 451.888 451.888
91 454.859 454.859 454.859
92 457.829 457.829 457.829
93 460.8 460.8 460.8
94 463.771 463.771 463.771
95 466.741 466.741 466.741
96 469.712 469.712 469.712
97 472.683 472.683 472.683
98 475.653 475.653 475.653
99 478.624 478.624 478.624
100 481.595 481.595 481.595
101 484.565 484.565 484.565
102 487.536 487.536 487.536
103 490.507 490.507 490.507
104 493.477 493.477 493.477
105 496.448 496.448 496.448
106 499.419 499.419 499.419
107 502.389 502.389 502.389
108 505.36 505.36 505.36
109 508.331 508.331 508.331
110 511.301 511.301 511.301
111 514.272 514.272 514.272
112 517.243 517.243 517.243
113 520.213 520.213 520.213
114 523.184 523.184 523.184
115 526.155 526.155 526.155
116 529.125 529.125 529.125
117 532.096 532.096 532.096
118 535.066 535.066 535.066
119 538.037 538.037 538.037
120 541.008 541.008 541.008
121 543.978 543.978 543.978
122 546.949 546.949 546.949
123 549.92 549.92 549.92
124 552.89 552.89 552.89
125 555.861 555.861 555.861
126 558.832 558.832 558.832
127 561.802 561.802 561.802
128 564.773 564.773 564.773
129 567.744 567.744 567.744
130 570.714 570.714 570.714
131 573.685 573.685 573.685
132 576.656 576.656 576.656
133 579.626 579.626 579.626
134 582.597 582.597 582.597
135 585.568 585.568 585.568
136 588.538 588.538 588.538
137 591.508 591.508 591.508
138 594.461 594.461 594.461
139 597.284 597.284 597.284
140 599.421 599.421 599.421
ITEM: TIMESTEP
20
ITEM: NUMBER OF ATOMS
140
ITEM: BOX BOUNDS pp pp pp
0.0000000000000000e+00 7.5000000000000000e+02
0.0000000000000000e+00 7.5000000000000000e+02
0.0000000000000000e+00 7.5000000000000000e+02
ITEM: ATOMS id x y z
1 189.5 189.5 189.5
2 191.121 191.121 191.121
3 193.606 193.606 193.606
4 196.445 196.445 196.445
5 199.388 199.388 199.388
6 202.354 202.354 202.354
7 205.324 205.324 205.324
8 208.295 208.295 208.295
9 211.265 211.265 211.265
10 214.236 214.236 214.236
11 217.207 217.207 217.207
12 220.177 220.177 220.177
13 223.148 223.148 223.148
14 226.118 226.118 226.118
15 229.089 229.089 229.089
16 232.06 232.06 232.06
17 235.03 235.03 235.03
18 238.001 238.001 238.001
19 240.972 240.972 240.972
20 243.942 243.942 243.942
21 246.913 246.913 246.913
22 249.884 249.884 249.884
23 252.854 252.854 252.854
24 255.825 255.825 255.825
25 258.796 258.796 258.796
26 261.766 261.766 261.766
27 264.737 264.737 264.737
28 267.708 267.708 267.708
29 270.678 270.678 270.678
30 273.649 273.649 273.649
31 276.62 276.62 276.62
32 279.59 279.59 279.59
33 282.561 282.561 282.561
34 285.532 285.532 285.532
35 288.502 288.502 288.502
36 291.473 291.473 291.473
37 294.444 294.444 294.444
38 297.414 297.414 297.414
39 300.385 300.385 300.385
40 303.355 303.355 303.355
41 306.326 306.326 306.326
42 309.297 309.297 309.297
43 312.267 312.267 312.267
44 315.238 315.238 315.238
45 318.209 318.209 318.209
46 321.179 321.179 321.179
47 324.15 324.15 324.15
48 327.121 327.121 327.121
49 330.091 330.091 330.091
50 333.062 333.062 333.062
51 336.033 336.033 336.033
52 339.003 339.003 339.003
53 341.974 341.974 341.974
54 344.945 344.945 344.945
55 347.915 347.915 347.915
56 350.886 350.886 350.886
57 353.857 353.857 353.857
58 356.827 356.827 356.827
59 359.798 359.798 359.798
60 362.769 362.769 362.769
61 365.739 365.739 365.739
62 368.71 368.71 368.71
63 371.681 371.681 371.681
64 374.651 374.651 374.651
65 377.622 377.622 377.622
66 380.592 380.592 380.592
67 383.563 383.563 383.563
68 386.534 386.534 386.534
69 389.504 389.504 389.504
70 392.475 392.475 392.475
71 395.446 395.446 395.446
72 398.416 398.416 398.416
73 401.387 401.387 401.387
74 404.358 404.358 404.358
75 407.328 407.328 407.328
76 410.299 410.299 410.299
77 413.27 413.27 413.27
78 416.24 416.24 416.24
79 419.211 419.211 419.211
80 422.182 422.182 422.182
81 425.152 425.152 425.152
82 428.123 428.123 428.123
83 431.094 431.094 431.094
84 434.064 434.064 434.064
85 437.035 437.035 437.035
86 440.006 440.006 440.006
87 442.976 442.976 442.976
88 445.947 445.947 445.947
89 448.918 448.918 448.918
90 451.888 451.888 451.888
91 454.859 454.859 454.859
92 457.829 457.829 457.829
93 460.8 460.8 460.8
94 463.771 463.771 463.771
95 466.741 466.741 466.741
96 469.712 469.712 469.712
97 472.683 472.683 472.683
98 475.653 475.653 475.653
99 478.624 478.624 478.624
100 481.595 481.595 481.595
101 484.565 484.565 484.565
102 487.536 487.536 487.536
103 490.507 490.507 490.507
104 493.477 493.477 493.477
105 496.448 496.448 496.448
106 499.419 499.419 499.419
107 502.389 502.389 502.389
108 505.36 505.36 505.36
109 508.331 508.331 508.331
110 511.301 511.301 511.301
111 514.272 514.272 514.272
112 517.243 517.243 517.243
113 520.213 520.213 520.213
114 523.184 523.184 523.184
115 526.155 526.155 526.155
116 529.125 529.125 529.125
117 532.096 532.096 532.096
118 535.066 535.066 535.066
119 538.037 538.037 538.037
120 541.008 541.008 541.008
121 543.978 543.978 543.978
122 546.949 546.949 546.949
123 549.92 549.92 549.92
124 552.89 552.89 552.89
125 555.861 555.861 555.861
126 558.832 558.832 558.832
127 561.802 561.802 561.802
128 564.773 564.773 564.773
129 567.744 567.744 567.744
130 570.714 570.714 570.714
131 573.685 573.685 573.685
132 576.656 576.656 576.656
133 579.626 579.626 579.626
134 582.597 582.597 582.597
135 585.567 585.567 585.567
136 588.533 588.533 588.533
137 591.476 591.476 591.476
138 594.315 594.315 594.315
139 596.8 596.8 596.8
140 598.421 598.421 598.421
ITEM: TIMESTEP
30
ITEM: NUMBER OF ATOMS
140
ITEM: BOX BOUNDS pp pp pp
0.0000000000000000e+00 7.5000000000000000e+02
0.0000000000000000e+00 7.5000000000000000e+02
0.0000000000000000e+00 7.5000000000000000e+02
ITEM: ATOMS id x y z
1 190.5 190.5 190.5
2 191.81 191.81 191.81
3 193.949 193.949 193.949
4 196.575 196.575 196.575
5 199.427 199.427 199.427
6 202.364 202.364 202.364
7 205.326 205.326 205.326
8 208.295 208.295 208.295
9 211.265 211.265 211.265
10 214.236 214.236 214.236
11 217.207 217.207 217.207
12 220.177 220.177 220.177
13 223.148 223.148 223.148
14 226.118 226.118 226.118
15 229.089 229.089 229.089
16 232.06 232.06 232.06
17 235.03 235.03 235.03
18 238.001 238.001 238.001
19 240.972 240.972 240.972
20 243.942 243.942 243.942
21 246.913 246.913 246.913
22 249.884 249.884 249.884
23 252.854 252.854 252.854
24 255.825 255.825 255.825
25 258.796 258.796 258.796
26 261.766 261.766 261.766
27 264.737 264.737 264.737
28 267.708 267.708 267.708
29 270.678 270.678 270.678
30 273.649 273.649 273.649
31 276.62 276.62 276.62
32 279.59 279.59 279.59
33 282.561 282.561 282.561
34 285.532 285.532 285.532
35 288.502 288.502 288.502
36 291.473 291.473 291.473
37 294.444 294.444 294.444
38 297.414 297.414 297.414
39 300.385 300.385 300.385
40 303.355 303.355 303.355
41 306.326 306.326 306.326
42 309.297 309.297 309.297
43 312.267 312.267 312.267
44 315.238 315.238 315.238
45 318.209 318.209 318.209
46 321.179 321.179 321.179
47 324.15 324.15 324.15
48 327.121 327.121 327.121
49 330.091 330.091 330.091
50 333.062 333.062 333.062
51 336.033 336.033 336.033
52 339.003 339.003 339.003
53 341.974 341.974 341.974
54 344.945 344.945 344.945
55 347.915 347.915 347.915
56 350.886 350.886 350.886
57 353.857 353.857 353.857
58 356.827 356.827 356.827
59 359.798 359.798 359.798
60 362.769 362.769 362.769
61 365.739 365.739 365.739
62 368.71 368.71 368.71
63 371.681 371.681 371.681
64 374.651 374.651 374.651
65 377.622 377.622 377.622
66 380.592 380.592 380.592
67 383.563 383.563 383.563
68 386.534 386.534 386.534
69 389.504 389.504 389.504
70 392.475 392.475 392.475
71 395.446 395.446 395.446
72 398.416 398.416 398.416
73 401.387 401.387 401.387
74 404.358 404.358 404.358
75 407.328 407.328 407.328
76 410.299 410.299 410.299
77 413.27 413.27 413.27
78 416.24 416.24 416.24
79 419.211 419.211 419.211
80 422.182 422.182 422.182
81 425.152 425.152 425.152
82 428.123 428.123 428.123
83 431.094 431.094 431.094
84 434.064 434.064 434.064
85 437.035 437.035 437.035
86 440.006 440.006 440.006
87 442.976 442.976 442.976
88 445.947 445.947 445.947
89 448.918 448.918 448.918
90 451.888 451.888 451.888
91 454.859 454.859 454.859
92 457.829 457.829 457.829
93 460.8 460.8 460.8
94 463.771 463.771 463.771
95 466.741 466.741 466.741
96 469.712 469.712 469.712
97 472.683 472.683 472.683
98 475.653 475.653 475.653
99 478.624 478.624 478.624
100 481.595 481.595 481.595
101 484.565 484.565 484.565
102 487.536 487.536 487.536
103 490.507 490.507 490.507
104 493.477 493.477 493.477
105 496.448 496.448 496.448
106 499.419 499.419 499.419
107 502.389 502.389 502.389
108 505.36 505.36 505.36
109 508.331 508.331 508.331
110 511.301 511.301 511.301
111 514.272 514.272 514.272
112 517.243 517.243 517.243
113 520.213 520.213 520.213
114 523.184 523.184 523.184
115 526.155 526.155 526.155
116 529.125 529.125 529.125
117 532.096 532.096 532.096
118 535.066 535.066 535.066
119 538.037 538.037 538.037
120 541.008 541.008 541.008
121 543.978 543.978 543.978
122 546.949 546.949 546.949
123 549.92 549.92 549.92
124 552.89 552.89 552.89
125 555.861 555.861 555.861
126 558.832 558.832 558.832
127 561.802 561.802 561.802
128 564.773 564.773 564.773
129 567.744 567.744 567.744
130 570.714 570.714 570.714
131 573.685 573.685 573.685
132 576.656 576.656 576.656
133 579.626 579.626 579.626
134 582.595 582.595 582.595
135 585.557 585.557 585.557
136 588.494 588.494 588.494
137 591.346 591.346 591.346
138 593.972 593.972 593.972
139 596.111 596.111 596.111
140 597.421 597.421 597.421
ITEM: TIMESTEP
40
ITEM: NUMBER OF ATOMS
140
ITEM: BOX BOUNDS pp pp pp
0.0000000000000000e+00 7.5000000000000000e+02
0.0000000000000000e+00 7.5000000000000000e+02
0.0000000000000000e+00 7.5000000000000000e+02
ITEM: ATOMS id x y z
1 191.5 191.5 191.5
2 192.609 192.609 192.609
3 194.465 194.465 194.465
4 196.849 196.849 196.849
5 199.549 199.549 199.549
6 202.409 202.409 202.409
7 205.341 205.341 205.341
8 208.299 208.299 208.299
9 211.266 211.266 211.266
10 214.236 214.236 214.236
11 217.207 217.207 217.207
12 220.177 220.177 220.177
13 223.148 223.148 223.148
14 226.118 226.118 226.118
15 229.089 229.089 229.089
16 232.06 232.06 232.06
17 235.03 235.03 235.03
18 238.001 238.001 238.001
19 240.972 240.972 240.972
20 243.942 243.942 243.942
21 246.913 246.913 246.913
22 249.884 249.884 249.884
23 252.854 252.854 252.854
24 255.825 255.825 255.825
25 258.796 258.796 258.796
26 261.766 261.766 261.766
27 264.737 264.737 264.737
28 267.708 267.708 267.708
29 270.678 270.678 270.678
30 273.649 273.649 273.649
31 276.62 276.62 276.62
32 279.59 279.59 279.59
33 282.561 282.561 282.561
34 285.532 285.532 285.532
35 288.502 288.502 288.502
36 291.473 291.473 291.473
37 294.444 294.444 294.444
38 297.414 297.414 297.414
39 300.385 300.385 300.385
40 303.355 303.355 303.355
41 306.326 306.326 306.326
42 309.297 309.297 309.297
43 312.267 312.267 312.267
44 315.238 315.238 315.238
45 318.209 318.209 318.209
46 321.179 321.179 321.179
47 324.15 324.15 324.15
48 327.121 327.121 327.121
49 330.091 330.091 330.091
50 333.062 333.062 333.062
51 336.033 336.033 336.033
52 339.003 339.003 339.003
53 341.974 341.974 341.974
54 344.945 344.945 344.945
55 347.915 347.915 347.915
56 350.886 350.886 350.886
57 353.857 353.857 353.857
58 356.827 356.827 356.827
59 359.798 359.798 359.798
60 362.769 362.769 362.769
61 365.739 365.739 365.739
62 368.71 368.71 368.71
63 371.681 371.681 371.681
64 374.651 374.651 374.651
65 377.622 377.622 377.622
66 380.592 380.592 380.592
67 383.563 383.563 383.563
68 386.534 386.534 386.534
69 389.504 389.504 389.504
70 392.475 392.475 392.475
71 395.446 395.446 395.446
72 398.416 398.416 398.416
73 401.387 401.387 401.387
74 404.358 404.358 404.358
75 407.328 407.328 407.328
76 410.299 410.299 410.299
77 413.27 413.27 413.27
78 416.24 416.24 416.24
79 419.211 419.211 419.211
80 422.182 422.182 422.182
81 425.152 425.152 425.152
82 428.123 428.123 428.123
83 431.094 431.094 431.094
84 434.064 434.064 434.064
85 437.035 437.035 437.035
86 440.006 440.006 440.006
87 442.976 442.976 442.976
88 445.947 445.947 445.947
89 448.918 448.918 448.918
90 451.888 451.888 451.888
91 454.859 454.859 454.859
92 457.829 457.829 457.829
93 460.8 460.8 460.8
94 463.771 463.771 463.771
95 466.741 466.741 466.741
96 469.712 469.712 469.712
97 472.683 472.683 472.683
98 475.653 475.653 475.653
99 478.624 478.624 478.624
100 481.595 481.595 481.595
101 484.565 484.565 484.565
102 487.536 487.536 487.536
103 490.507 490.507 490.507
104 493.477 493.477 493.477
105 496.448 496.448 496.448
106 499.419 499.419 499.419
107 502.389 502.389 502.389
108 505.36 505.36 505.36
109 508.331 508.331 508.331
110 511.301 511.301 511.301
111 514.272 514.272 514.272
112 517.243 517.243 517.243
113 520.213 520.213 520.213
114 523.184 523.184 523.184
115 526.155 526.155 526.155
116 529.125 529.125 529.125
117 532.096 532.096 532.096
118 535.066 535.066 535.066
119 538.037 538.037 538.037
120 541.008 541.008 541.008
121 543.978 543.978 543.978
122 546.949 546.949 546.949
123 549.92 549.92 549.92
124 552.89 552.89 552.89
125 555.861 555.861 555.861
126 558.832 558.832 558.832
127 561.802 561.802 561.802
128 564.773 564.773 564.773
129 567.744 567.744 567.744
130 570.714 570.714 570.714
131 573.685 573.685 573.685
132 576.655 576.655 576.655
133 579.622 579.622 579.622
134 582.58 582.58 582.58
135 585.511 585.511 585.511
136 588.372 588.372 588.372
137 591.072 591.072 591.072
138 593.455 593.455 593.455
139 595.312 595.312 595.312
140 596.421 596.421 596.421
ITEM: TIMESTEP
50
ITEM: NUMBER OF ATOMS
140
ITEM: BOX BOUNDS pp pp pp
0.0000000000000000e+00 7.5000000000000000e+02
0.0000000000000000e+00 7.5000000000000000e+02
0.0000000000000000e+00 7.5000000000000000e+02
ITEM: ATOMS id x y z
1 192.5 192.5 192.5
2 193.471 193.471 193.471
3 195.106 195.106 195.106
4 197.263 197.263 197.263
5 199.782 199.782 199.782
6 202.525 202.525 202.525
7 205.392 205.392 205.392
8 208.319 208.319 208.319
9 211.273 211.273 211.273
10 214.238 214.238 214.238
11 217.207 217.207 217.207
12 220.177 220.177 220.177
13 223.148 223.148 223.148
14 226.119 226.119 226.119
15 229.089 229.089 229.089
16 232.06 232.06 232.06
17 235.03 235.03 235.03
18 238.001 238.001 238.001
19 240.972 240.972 240.972
20 243.942 243.942 243.942
21 246.913 246.913 246.913
22 249.884 249.884 249.884
23 252.854 252.854 252.854
24 255.825 255.825 255.825
25 258.796 258.796 258.796
26 261.766 261.766 261.766
27 264.737 264.737 264.737
28 267.708 267.708 267.708
29 270.678 270.678 270.678
30 273.649 273.649 273.649
31 276.62 276.62 276.62
32 279.59 279.59 279.59
33 282.561 282.561 282.561
34 285.532 285.532 285.532
35 288.502 288.502 288.502
36 291.473 291.473 291.473
37 294.444 294.444 294.444
38 297.414 297.414 297.414
39 300.385 300.385 300.385
40 303.355 303.355 303.355
41 306.326 306.326 306.326
42 309.297 309.297 309.297
43 312.267 312.267 312.267
44 315.238 315.238 315.238
45 318.209 318.209 318.209
46 321.179 321.179 321.179
47 324.15 324.15 324.15
48 327.121 327.121 327.121
49 330.091 330.091 330.091
50 333.062 333.062 333.062
51 336.033 336.033 336.033
52 339.003 339.003 339.003
53 341.974 341.974 341.974
54 344.945 344.945 344.945
55 347.915 347.915 347.915
56 350.886 350.886 350.886
57 353.857 353.857 353.857
58 356.827 356.827 356.827
59 359.798 359.798 359.798
60 362.769 362.769 362.769
61 365.739 365.739 365.739
62 368.71 368.71 368.71
63 371.681 371.681 371.681
64 374.651 374.651 374.651
65 377.622 377.622 377.622
66 380.592 380.592 380.592
67 383.563 383.563 383.563
68 386.534 386.534 386.534
69 389.504 389.504 389.504
70 392.475 392.475 392.475
71 395.446 395.446 395.446
72 398.416 398.416 398.416
73 401.387 401.387 401.387
74 404.358 404.358 404.358
75 407.328 407.328 407.328
76 410.299 410.299 410.299
77 413.27 413.27 413.27
78 416.24 416.24 416.24
79 419.211 419.211 419.211
80 422.182 422.182 422.182
81 425.152 425.152 425.152
82 428.123 428.123 428.123
83 431.094 431.094 431.094
84 434.064 434.064 434.064
85 437.035 437.035 437.035
86 440.006 440.006 440.006
87 442.976 442.976 442.976
88 445.947 445.947 445.947
89 448.918 448.918 448.918
90 451.888 451.888 451.888
91 454.859 454.859 454.859
92 457.829 457.829 457.829
93 460.8 460.8 460.8
94 463.771 463.771 463.771
95 466.741 466.741 466.741
96 469.712 469.712 469.712
97 472.683 472.683 472.683
98 475.653 475.653 475.653
99 478.624 478.624 478.624
100 481.595 481.595 481.595
101 484.565 484.565 484.565
102 487.536 487.536 487.536
103 490.507 490.507 490.507
104 493.477 493.477 493.477
105 496.448 496.448 496.448
106 499.419 499.419 499.419
107 502.389 502.389 502.389
108 505.36 505.36 505.36
109 508.331 508.331 508.331
110 511.301 511.301 511.301
111 514.272 514.272 514.272
112 517.243 517.243 517.243
113 520.213 520.213 520.213
114 523.184 523.184 523.184
115 526.155 526.155 526.155
116 529.125 529.125 529.125
117 532.096 532.096 532.096
118 535.066 535.066 535.066
119 538.037 538.037 538.037
120 541.008 541.008 541.008
121 543.978 543.978 543.978
122 546.949 546.949 546.949
123 549.92 549.92 549.92
124 552.89 552.89 552.89
125 555.861 555.861 555.861
126 558.832 558.832 558.832
127 561.802 561.802 561.802
128 564.773 564.773 564.773
129 567.743 567.743 567.743
130 570.714 570.714 570.714
131 573.683 573.683 573.683
132 576.648 576.648 576.648
133 579.602 579.602 579.602
134 582.529 582.529 582.529
135 585.396 585.396 585.396
136 588.139 588.139 588.139
137 590.658 590.658 590.658
138 592.815 592.815 592.815
139 594.45 594.45 594.45
140 595.421 595.421 595.421
ITEM: TIMESTEP
60
ITEM: NUMBER OF ATOMS
140
ITEM: BOX BOUNDS pp pp pp
0.0000000000000000e+00 7.5000000000000000e+02
0.0000000000000000e+00 7.5000000000000000e+02
0.0000000000000000e+00 7.5000000000000000e+02
ITEM: ATOMS id x y z
1 193.5 193.5 193.5
2 194.37 194.37 194.37
3 195.832 195.832 195.832
4 197.791 197.791 197.791
5 200.128 200.128 200.128
6 202.73 202.73 202.73
7 205.503 205.503 205.503
8 208.374 208.374 208.374
9 211.298 211.298 211.298
10 214.249 214.249 214.249
11 217.211 217.211 217.211
12 220.179 220.179 220.179
13 223.148 223.148 223.148
14 226.119 226.119 226.119
15 229.089 229.089 229.089
16 232.06 232.06 232.06
17 235.03 235.03 235.03
18 238.001 238.001 238.001
19 240.972 240.972 240.972
20 243.942 243.942 243.942
21 246.913 246.913 246.913
22 249.884 249.884 249.884
23 252.854 252.854 252.854
24 255.825 255.825 255.825
25 258.796 258.796 258.796
26 261.766 261.766 261.766
27 264.737 264.737 264.737
28 267.708 267.708 267.708
29 270.678 270.678 270.678
30 273.649 273.649 273.649
31 276.62 276.62 276.62
32 279.59 279.59 279.59
33 282.561 282.561 282.561
34 285.532 285.532 285.532
35 288.502 288.502 288.502
36 291.473 291.473 291.473
37 294.444 294.444 294.444
38 297.414 297.414 297.414
39 300.385 300.385 300.385
40 303.355 303.355 303.355
41 306.326 306.326 306.326
42 309.297 309.297 309.297
43 312.267 312.267 312.267
44 315.238 315.238 315.238
45 318.209 318.209 318.209
46 321.179 321.179 321.179
47 324.15 324.15 324.15
48 327.121 327.121 327.121
49 330.091 330.091 330.091
50 333.062 333.062 333.062
51 336.033 336.033 336.033
52 339.003 339.003 339.003
53 341.974 341.974 341.974
54 344.945 344.945 344.945
55 347.915 347.915 347.915
56 350.886 350.886 350.886
57 353.857 353.857 353.857
58 356.827 356.827 356.827
59 359.798 359.798 359.798
60 362.769 362.769 362.769
61 365.739 365.739 365.739
62 368.71 368.71 368.71
63 371.681 371.681 371.681
64 374.651 374.651 374.651
65 377.622 377.622 377.622
66 380.592 380.592 380.592
67 383.563 383.563 383.563
68 386.534 386.534 386.534
69 389.504 389.504 389.504
70 392.475 392.475 392.475
71 395.446 395.446 395.446
72 398.416 398.416 398.416
73 401.387 401.387 401.387
74 404.358 404.358 404.358
75 407.328 407.328 407.328
76 410.299 410.299 410.299
77 413.27 413.27 413.27
78 416.24 416.24 416.24
79 419.211 419.211 419.211
80 422.182 422.182 422.182
81 425.152 425.152 425.152
82 428.123 428.123 428.123
83 431.094 431.094 431.094
84 434.064 434.064 434.064
85 437.035 437.035 437.035
86 440.006 440.006 440.006
87 442.976 442.976 442.976
88 445.947 445.947 445.947
89 448.918 448.918 448.918
90 451.888 451.888 451.888
91 454.859 454.859 454.859
92 457.829 457.829 457.829
93 460.8 460.8 460.8
94 463.771 463.771 463.771
95 466.741 466.741 466.741
96 469.712 469.712 469.712
97 472.683 472.683 472.683
98 475.653 475.653 475.653
99 478.624 478.624 478.624
100 481.595 481.595 481.595
101 484.565 484.565 484.565
102 487.536 487.536 487.536
103 490.507 490.507 490.507
104 493.477 493.477 493.477
105 496.448 496.448 496.448
106 499.419 499.419 499.419
107 502.389 502.389 502.389
108 505.36 505.36 505.36
109 508.331 508.331 508.331
110 511.301 511.301 511.301
111 514.272 514.272 514.272
112 517.243 517.243 517.243
113 520.213 520.213 520.213
114 523.184 523.184 523.184
115 526.155 526.155 526.155
116 529.125 529.125 529.125
117 532.096 532.096 532.096
118 535.066 535.066 535.066
119 538.037 538.037 538.037
120 541.008 541.008 541.008
121 543.978 543.978 543.978
122 546.949 546.949 546.949
123 549.92 549.92 549.92
124 552.89 552.89 552.89
125 555.861 555.861 555.861
126 558.832 558.832 558.832
127 561.802 561.802 561.802
128 564.773 564.773 564.773
129 567.742 567.742 567.742
130 570.71 570.71 570.71
131 573.672 573.672 573.672
132 576.623 576.623 576.623
133 579.547 579.547 579.547
134 582.418 582.418 582.418
135 585.188 585.188 585.188
136 587.792 587.792 587.792
137 590.13 590.13 590.13
138 592.089 592.089 592.089
139 593.553 593.553 593.553
140 594.421 594.421 594.421
ITEM: TIMESTEP
70
ITEM: NUMBER OF ATOMS
140
ITEM: BOX BOUNDS pp pp pp
0.0000000000000000e+00 7.5000000000000000e+02
0.0000000000000000e+00 7.5000000000000000e+02
0.0000000000000000e+00 7.5000000000000000e+02
ITEM: ATOMS id x y z
1 194.5 194.5 194.5
2 195.292 195.292 195.292
3 196.616 196.616 196.616
4 198.407 198.407 198.407
5 200.574 200.574 200.574
6 203.029 203.029 203.029
7 205.689 205.689 205.689
8 208.482 208.482 208.482
9 211.356 211.356 211.356
10 214.278 214.278 214.278
11 217.225 217.225 217.225
12 220.185 220.185 220.185
13 223.151 223.151 223.151
14 226.12 226.12 226.12
15 229.09 229.09 229.09
16 232.06 232.06 232.06
17 235.03 235.03 235.03
18 238.001 238.001 238.001
19 240.972 240.972 240.972
20 243.942 243.942 243.942
21 246.913 246.913 246.913
22 249.884 249.884 249.884
23 252.854 252.854 252.854
24 255.825 255.825 255.825
25 258.796 258.796 258.796
26 261.766 261.766 261.766
27 264.737 264.737 264.737
28 267.708 267.708 267.708
29 270.678 270.678 270.678
30 273.649 273.649 273.649
31 276.62 276.62 276.62
32 279.59 279.59 279.59
33 282.561 282.561 282.561
34 285.532 285.532 285.532
35 288.502 288.502 288.502
36 291.473 291.473 291.473
37 294.444 294.444 294.444
38 297.414 297.414 297.414
39 300.385 300.385 300.385
40 303.355 303.355 303.355
41 306.326 306.326 306.326
42 309.297 309.297 309.297
43 312.267 312.267 312.267
44 315.238 315.238 315.238
45 318.209 318.209 318.209
46 321.179 321.179 321.179
47 324.15 324.15 324.15
48 327.121 327.121 327.121
49 330.091 330.091 330.091
50 333.062 333.062 333.062
51 336.033 336.033 336.033
52 339.003 339.003 339.003
53 341.974 341.974 341.974
54 344.945 344.945 344.945
55 347.915 347.915 347.915
56 350.886 350.886 350.886
57 353.857 353.857 353.857
58 356.827 356.827 356.827
59 359.798 359.798 359.798
60 362.769 362.769 362.769
61 365.739 365.739 365.739
62 368.71 368.71 368.71
63 371.681 371.681 371.681
64 374.651 374.651 374.651
65 377.622 377.622 377.622
66 380.592 380.592 380.592
67 383.563 383.563 383.563
68 386.534 386.534 386.534
69 389.504 389.504 389.504