ITEM: TIMESTEP
5900
ITEM: NUMBER OF ATOMS
140
ITEM: BOX BOUNDS pp pp pp
0.0000000000000000e+00 7.5000000000000000e+02
0.0000000000000000e+00 7.5000000000000000e+02
0.0000000000000000e+00 7.5000000000000000e+02
ITEM: ATOMS id x y z
1 353.444 353.481 353.439
2 353.891 353.86 353.85
3 354.302 354.273 354.258
4 354.938 354.947 354.921
5 355.805 355.818 355.804
6 356.199 356.242 356.215
7 356.666 356.6 356.666
8 357.323 357.267 357.278
9 358.14 358.139 358.108
10 358.559 358.59 358.546
11 358.998 359.016 358.964
12 359.667 359.647 359.626
13 360.432 360.436 360.417
14 360.857 360.866 360.874
15 361.317 361.374 361.385
16 362.037 361.971 361.999
17 362.802 362.742 362.745
18 363.267 363.208 363.223
19 363.685 363.742 363.733
20 364.365 364.338 364.377
21 365.07 365.103 365.115
22 365.581 365.584 365.557
23 366.06 366.076 366.079
24 366.691 366.688 366.689
25 367.467 367.463 367.448
26 367.929 367.933 367.968
27 368.44 368.376 368.43
28 369.059 369.011 369.056
29 369.728 369.73 369.768
30 370.298 370.295 370.292
31 370.746 370.721 370.805
32 371.373 371.366 371.376
33 372.069 372.109 372.052
34 372.623 372.592 372.601
35 373.108 373.092 373.135
36 373.7 373.759 373.777
37 374.403 374.436 374.416
38 374.919 374.951 374.935
39 375.437 375.445 375.465
40 376.031 376.075 376.078
41 376.799 376.796 376.692
42 377.316 377.272 377.277
43 377.806 377.822 377.793
44 378.441 378.383 378.429
45 379.111 379.063 379.097
46 379.624 379.654 379.611
47 380.201 380.142 380.103
48 380.789 380.78 380.75
49 381.377 381.409 381.42
50 381.975 381.962 381.979
51 382.547 382.456 382.503
52 383.111 383.074 383.092
53 383.717 383.734 383.792
54 384.344 384.326 384.351
55 384.875 384.827 384.825
56 385.394 385.447 385.408
57 386.115 386.07 386.095
58 386.639 386.639 386.681
59 387.226 387.175 387.22
60 387.785 387.764 387.754
61 388.436 388.461 388.434
62 388.99 389.007 389.013
63 389.515 389.557 389.543
64 390.092 390.106 390.113
65 390.794 390.751 390.74
66 391.374 391.331 391.345
67 391.875 391.899 391.907
68 392.5 392.488 392.503
69 393.135 393.075 393.08
70 393.714 393.715 393.695
71 394.261 394.262 394.201
72 394.798 394.82 394.769
73 395.478 395.482 395.488
74 396.06 396.057 396.047
75 396.538 396.564 396.583
76 397.099 397.131 397.171
77 397.768 397.805 397.777
78 398.367 398.339 398.403
79 398.93 398.898 398.909
80 399.461 399.452 399.474
81 400.095 400.097 400.107
82 400.711 400.737 400.742
83 401.289 401.289 401.23
84 401.83 401.817 401.809
85 402.423 402.475 402.427
86 403.061 403.072 403.096
87 403.603 403.585 403.586
88 404.134 404.154 404.129
89 404.758 404.846 404.82
90 405.422 405.401 405.389
91 405.989 405.99 405.969
92 406.489 406.495 406.519
93 407.128 407.143 407.096
94 407.793 407.767 407.756
95 408.297 408.287 408.313
96 408.809 408.85 408.817
97 409.501 409.477 409.514
98 410.111 410.14 410.136
99 410.624 410.656 410.652
100 411.179 411.136 411.16
101 411.847 411.872 411.788
102 412.449 412.489 412.479
103 413.008 412.952 412.954
104 413.529 413.505 413.509
105 414.169 414.16 414.166
106 414.758 414.784 414.833
107 415.346 415.32 415.323
108 415.869 415.819 415.809
109 416.494 416.523 416.541
110 417.164 417.169 417.156
111 417.663 417.712 417.637
112 418.139 418.164 418.157
113 418.879 418.869 418.846
114 419.515 419.523 419.512
115 419.996 420.017 419.982
116 420.495 420.489 420.495
117 421.229 421.218 421.245
118 421.881 421.84 421.858
119 422.383 422.344 422.376
120 422.835 422.827 422.838
121 423.593 423.569 423.535
122 424.215 424.234 424.204
123 424.72 424.711 424.718
124 425.135 425.186 425.154
125 425.894 425.898 425.92
126 426.549 426.574 426.593
127 427.046 427.063 427.071
128 427.486 427.507 427.458
129 428.303 428.298 428.299
130 428.952 428.952 428.952
131 429.354 429.389 429.374
132 429.785 429.799 429.832
133 430.624 430.626 430.636
134 431.325 431.322 431.299
135 431.755 431.726 431.745
136 432.118 432.129 432.145
137 433.001 432.979 433.021
138 433.66 433.657 433.664
139 434.124 434.098 434.099
140 434.468 434.457 434.452
ITEM: TIMESTEP
6000
ITEM: NUMBER OF ATOMS
140
ITEM: BOX BOUNDS pp pp pp
0.0000000000000000e+00 7.5000000000000000e+02
0.0000000000000000e+00 7.5000000000000000e+02
0.0000000000000000e+00 7.5000000000000000e+02
ITEM: ATOMS id x y z
1 353.408 353.517 353.394
2 353.947 353.857 353.828
3 354.344 354.261 354.218
4 354.956 354.981 354.904
5 355.813 355.85 355.811
6 356.16 356.283 356.204
7 356.715 356.523 356.713
8 357.379 357.216 357.247
9 358.182 358.18 358.089
10 358.542 358.632 358.505
11 359.006 359.059 358.907
12 359.702 359.645 359.581
13 360.422 360.432 360.378
14 360.755 360.783 360.807
15 361.261 361.424 361.457
16 362.109 361.917 361.999
17 362.877 362.702 362.711
18 363.3 363.128 363.171
19 363.656 363.821 363.795
20 364.401 364.323 364.434
21 365.034 365.128 365.164
22 365.565 365.571 365.494
23 366.072 366.119 366.125
24 366.687 366.678 366.681
25 367.564 367.552 367.508
26 367.928 367.939 368.041
27 368.508 368.32 368.479
28 369.099 368.959 369.09
29 369.694 369.699 369.808
30 370.353 370.345 370.336
31 370.728 370.657 370.9
32 371.359 371.34 371.369
33 372.051 372.168 372.003
34 372.651 372.559 372.586
35 373.111 373.065 373.191
36 373.651 373.824 373.875
37 374.39 374.486 374.426
38 374.86 374.951 374.904
39 375.405 375.427 375.487
40 375.96 376.086 376.095
41 376.903 376.895 376.592
42 377.36 377.233 377.248
43 377.814 377.858 377.776
44 378.495 378.328 378.461
45 379.173 379.032 379.131
46 379.602 379.69 379.564
47 380.3 380.129 380.016
48 380.853 380.827 380.741
49 381.306 381.399 381.429
50 381.971 381.933 381.981
51 382.644 382.378 382.516
52 383.137 383.032 383.083
53 383.652 383.703 383.872
54 384.39 384.337 384.409
55 384.936 384.796 384.792
56 385.31 385.463 385.35
57 386.167 386.035 386.11
58 386.593 386.592 386.714
59 387.295 387.15 387.279
60 387.795 387.733 387.706
61 388.447 388.521 388.441
62 388.956 389.005 389.022
63 389.477 389.598 389.559
64 390.037 390.078 390.099
65 390.844 390.719 390.688
66 391.415 391.29 391.333
67 391.865 391.934 391.957
68 392.576 392.539 392.583
69 393.192 393.016 393.031
70 393.747 393.752 393.693
71 394.33 394.331 394.154
72 394.792 394.856 394.711
73 395.542 395.552 395.571
74 396.096 396.088 396.06
75 396.475 396.552 396.606
76 397.022 397.114 397.232
77 397.739 397.845 397.763
78 398.332 398.25 398.437
79 398.96 398.866 398.897
80 399.428 399.402 399.466
81 400.042 400.048 400.076
82 400.672 400.746 400.761
83 401.346 401.347 401.174
84 401.857 401.819 401.795
85 402.347 402.498 402.359
86 403.028 403.061 403.132
87 403.604 403.551 403.555
88 404.097 404.155 404.082
89 404.671 404.927 404.851
90 405.417 405.358 405.323
91 406.071 406.075 406.014
92 406.485 406.503 406.574
93 407.098 407.143 407.006
94 407.835 407.76 407.726
95 408.314 408.283 408.359
96 408.775 408.893 408.799
97 409.534 409.462 409.57
98 410.095 410.179 410.169
99 410.611 410.704 410.692
100 411.212 411.087 411.156
101 411.888 411.96 411.716
102 412.416 412.533 412.502
103 413.072 412.911 412.916
104 413.59 413.521 413.533
105 414.171 414.147 414.164
106 414.653 414.729 414.871
107 415.403 415.327 415.335
108 415.936 415.79 415.762
109 416.454 416.538 416.591
110 417.17 417.185 417.148
111 417.672 417.814 417.596
112 418.079 418.152 418.133
113 418.907 418.879 418.813
114 419.514 419.539 419.508
115 419.985 420.045 419.945
116 420.477 420.457 420.477
117 421.258 421.226 421.304
118 421.902 421.782 421.833
119 422.447 422.333 422.427
120 422.827 422.806 422.837
121 423.646 423.575 423.478
122 424.195 424.25 424.162
123 424.765 424.739 424.76
124 425.068 425.217 425.124
125 425.845 425.857 425.923
126 426.489 426.56 426.617
127 427.061 427.11 427.131
128 427.465 427.525 427.385
129 428.357 428.341 428.343
130 428.974 428.974 428.975
131 429.297 429.398 429.355
132 429.716 429.758 429.853
133 430.603 430.608 430.635
134 431.377 431.371 431.302
135 431.79 431.707 431.761
136 432.075 432.106 432.151
137 432.991 432.926 433.049
138 433.657 433.651 433.671
139 434.156 434.08 434.084
140 434.442 434.41 434.396
ITEM: TIMESTEP
6100
ITEM: NUMBER OF ATOMS
140
ITEM: BOX BOUNDS pp pp pp
0.0000000000000000e+00 7.5000000000000000e+02
0.0000000000000000e+00 7.5000000000000000e+02
0.0000000000000000e+00 7.5000000000000000e+02
ITEM: ATOMS id x y z
1 353.373 353.551 353.349
2 354.003 353.854 353.807
3 354.385 354.248 354.178
4 354.973 355.015 354.888
5 355.822 355.882 355.817
6 356.121 356.325 356.194
7 356.764 356.448 356.76
8 357.434 357.166 357.217
9 358.223 358.221 358.071
10 358.526 358.673 358.464
11 359.015 359.101 358.852
12 359.737 359.642 359.538
13 360.411 360.429 360.34
14 360.655 360.7 360.74
15 361.206 361.474 361.528
16 362.18 361.864 362
17 362.951 362.663 362.679
18 363.332 363.049 363.12
19 363.628 363.899 363.856
20 364.437 364.308 364.491
21 364.998 365.153 365.212
22 365.549 365.56 365.432
23 366.083 366.162 366.172
24 366.682 366.668 366.672
25 367.659 367.639 367.567
26 367.928 367.945 368.114
27 368.575 368.266 368.528
28 369.138 368.908 369.123
29 369.659 369.669 369.848
30 370.407 370.394 370.379
31 370.71 370.592 370.994
32 371.346 371.314 371.363
33 372.035 372.226 371.955
34 372.679 372.527 372.571
35 373.114 373.039 373.246
36 373.603 373.889 373.973
37 374.376 374.535 374.437
38 374.8 374.951 374.874
39 375.373 375.41 375.508
40 375.888 376.096 376.112
41 377.005 376.993 376.493
42 377.404 377.194 377.219
43 377.821 377.895 377.76
44 378.548 378.274 378.492
45 379.234 379.001 379.164
46 379.58 379.726 379.517
47 380.398 380.115 379.929
48 380.917 380.874 380.732
49 381.236 381.389 381.439
50 381.968 381.904 381.984
51 382.739 382.302 382.529
52 383.163 382.99 383.073
53 383.589 383.672 383.95
54 384.436 384.348 384.467
55 384.997 384.766 384.759
56 385.228 385.478 385.292
57 386.219 386.002 386.125
58 386.547 386.546 386.746
59 387.364 387.124 387.337
60 387.806 387.703 387.659
61 388.458 388.58 388.449
62 388.922 389.003 389.031
63 389.44 389.639 389.575
64 389.983 390.05 390.085
65 390.893 390.688 390.636
66 391.457 391.251 391.321
67 391.856 391.969 392.007
68 392.651 392.59 392.663
69 393.247 392.957 392.983
70 393.78 393.789 393.69
71 394.397 394.4 394.108
72 394.787 394.893 394.653
73 395.604 395.621 395.652
74 396.132 396.118 396.072
75 396.414 396.54 396.629
76 396.947 397.096 397.293
77 397.71 397.884 397.749
78 398.297 398.162 398.47
79 398.989 398.834 398.886
80 399.396 399.352 399.457
81 399.99 399.999 400.046
82 400.633 400.756 400.781
83 401.402 401.404 401.12
84 401.884 401.821 401.781
85 402.272 402.52 402.292
86 402.997 403.051 403.167
87 403.605 403.518 403.525
88 404.06 404.155 404.035
89 404.585 405.006 404.882
90 405.412 405.315 405.257
91 406.152 406.159 406.058
92 406.482 406.511 406.628
93 407.069 407.142 406.917
94 407.877 407.753 407.696
95 408.33 408.28 408.405
96 408.742 408.937 408.781
97 409.566 409.447 409.625
98 410.08 410.218 410.201
99 410.598 410.751 410.731
100 411.244 411.038 411.153
101 411.929 412.047 411.645
102 412.383 412.576 412.524
103 413.136 412.87 412.878
104 413.65 413.536 413.556
105 414.173 414.134 414.161
106 414.55 414.675 414.909
107 415.459 415.334 415.348
108 416.002 415.761 415.716
109 416.415 416.552 416.64
110 417.177 417.202 417.141
111 417.68 417.915 417.555
112 418.02 418.14 418.108
113 418.934 418.888 418.779
114 419.514 419.555 419.503
115 419.975 420.073 419.908
116 420.458 420.425 420.458
117 421.286 421.234 421.361
118 421.922 421.725 421.809
119 422.51 422.322 422.477
120 422.82 422.785 422.837
121 423.698 423.581 423.421
122 424.175 424.266 424.121
123 424.81 424.767 424.801
124 425.003 425.248 425.094
125 425.797 425.817 425.925
126 426.43 426.547 426.641
127 427.075 427.155 427.191
128 427.445 427.543 427.312
129 428.409 428.384 428.387
130 428.996 428.995 428.997
131 429.24 429.407 429.336
132 429.647 429.717 429.874
133 430.581 430.59 430.634
134 431.428 431.418 431.304
135 431.825 431.687 431.777
136 432.031 432.083 432.157
137 432.981 432.874 433.077
138 433.655 433.644 433.678
139 434.188 434.063 434.068
140 434.416 434.364 434.341
ITEM: TIMESTEP
6200
ITEM: NUMBER OF ATOMS
140
ITEM: BOX BOUNDS pp pp pp
0.0000000000000000e+00 7.5000000000000000e+02
0.0000000000000000e+00 7.5000000000000000e+02
0.0000000000000000e+00 7.5000000000000000e+02
ITEM: ATOMS id x y z
1 353.338 353.586 353.305
2 354.058 353.851 353.785
3 354.425 354.236 354.138
4 354.99 355.049 354.872
5 355.831 355.914 355.824
6 356.083 356.365 356.184
7 356.812 356.374 356.807
8 357.488 357.116 357.188
9 358.264 358.261 358.053
10 358.509 358.713 358.424
11 359.023 359.143 358.797
12 359.772 359.639 359.494
13 360.401 360.425 360.302
14 360.557 360.619 360.674
15 361.151 361.524 361.599
16 362.25 361.812 362
17 363.024 362.625 362.646
18 363.364 362.97 363.07
19 363.6 363.976 363.916
20 364.471 364.293 364.547
21 364.963 365.179 365.26
22 365.533 365.548 365.371
23 366.094 366.204 366.217
24 366.678 366.658 366.664
25 367.752 367.726 367.625
26 367.927 367.951 368.185
27 368.641 368.212 368.576
28 369.176 368.858 369.155
29 369.626 369.639 369.888
30 370.461 370.443 370.421
31 370.693 370.529 371.086
32 371.333 371.289 371.356
33 372.018 372.283 371.907
34 372.706 372.495 372.556
35 373.118 373.014 373.301
36 373.556 373.952 374.069
37 374.363 374.583 374.447
38 374.742 374.951 374.845
39 375.341 375.393 375.529
40 375.818 376.107 376.129
41 377.107 377.089 376.396
42 377.447 377.156 377.19
43 377.829 377.931 377.743
44 378.6 378.22 378.523
45 379.294 378.971 379.198
46 379.559 379.761 379.471
47 380.495 380.102 379.844
48 380.98 380.92 380.723
49 381.167 381.38 381.448
50 381.964 381.876 381.987
51 382.833 382.227 382.541
52 383.188 382.949 383.064
53 383.526 383.641 384.027
54 384.48 384.359 384.523
55 385.057 384.736 384.726
56 385.146 385.494 385.236
57 386.27 385.969 386.14
58 386.502 386.501 386.778
59 387.432 387.099 387.395
60 387.816 387.673 387.612
61 388.469 388.639 388.456
62 388.889 389.001 389.04
63 389.403 389.68 389.59
64 389.93 390.022 390.071
65 390.942 390.657 390.585
66 391.498 391.212 391.31
67 391.846 392.003 392.056
68 392.725 392.641 392.741
69 393.302 392.899 392.935
70 393.813 393.825 393.688
71 394.463 394.468 394.063
72 394.782 394.929 394.596
73 395.666 395.689 395.733
74 396.168 396.148 396.084
75 396.353 396.528 396.652
76 396.872 397.08 397.352
77 397.681 397.922 397.736
78 398.263 398.075 398.503
79 399.018 398.802 398.875
80 399.363 399.304 399.449
81 399.938 399.951 400.016
82 400.595 400.766 400.8
83 401.457 401.46 401.065
84 401.91 401.823 401.767
85 402.198 402.542 402.225
86 402.966 403.04 403.202
87 403.606 403.486 403.494
88 404.024 404.156 403.989
89 404.501 405.085 404.912
90 405.407 405.273 405.192
91 406.232 406.241 406.102
92 406.479 406.519 406.681
93 407.04 407.141 406.828
94 407.918 407.746 407.667
95 408.346 408.277 408.449
96 408.709 408.98 408.763
97 409.597 409.433 409.68
98 410.064 410.257 410.233
99 410.586 410.798 410.77
100 411.275 410.99 411.148
101 411.969 412.133 411.574
102 412.35 412.619 412.547
103 413.199 412.83 412.841
104 413.71 413.552 413.578
105 414.176 414.12 414.158
106 414.447 414.622 414.946
107 415.515 415.341 415.36
108 416.068 415.733 415.67
109 416.376 416.566 416.688
110 417.183 417.218 417.133
111 417.689 418.015 417.515
112 417.962 418.128 418.084
113 418.961 418.897 418.746
114 419.513 419.571 419.498
115 419.964 420.101 419.872
116 420.439 420.394 420.44
117 421.314 421.241 421.418
118 421.942 421.668 421.785
119 422.572 422.311 422.526
120 422.813 422.764 422.836
121 423.749 423.586 423.365
122 424.155 424.282 424.08
123 424.854 424.794 424.842
124 424.938 425.278 425.065
125 425.749 425.778 425.927
126 426.371 426.534 426.664
127 427.089 427.2 427.25
128 427.425 427.561 427.241
129 428.461 428.426 428.43
130 429.018 429.016 429.018
131 429.184 429.416 429.317
132 429.58 429.676 429.894
133 430.559 430.572 430.633
134 431.479 431.465 431.307
135 431.86 431.668 431.793
136 431.988 432.06 432.163
137 432.97 432.823 433.104
138 433.653 433.638 433.684
139 434.219 434.045 434.053
140 434.39 434.319 434.286
ITEM: TIMESTEP
6300
ITEM: NUMBER OF ATOMS
140
ITEM: BOX BOUNDS pp pp pp
0.0000000000000000e+00 7.5000000000000000e+02
0.0000000000000000e+00 7.5000000000000000e+02
0.0000000000000000e+00 7.5000000000000000e+02
ITEM: ATOMS id x y z
1 353.304 353.62 353.261
2 354.112 353.848 353.765
3 354.465 354.225 354.1
4 355.007 355.082 354.856
5 355.84 355.946 355.831
6 356.046 356.406 356.175
7 356.86 356.3 356.854
8 357.542 357.067 357.158
9 358.305 358.301 358.035
10 358.493 358.754 358.384
11 359.031 359.184 358.744
12 359.806 359.637 359.452
13 360.391 360.421 360.264
14 360.459 360.539 360.61
15 361.097 361.573 361.669
16 362.32 361.761 362.001
17 363.096 362.587 362.614
18 363.395 362.893 363.02
19 363.573 364.053 363.975
20 364.506 364.278 364.603
21 364.929 365.204 365.307
22 365.518 365.536 365.31
23 366.105 366.245 366.262
24 366.673 366.649 366.656
25 367.844 367.811 367.682
26 367.926 367.956 368.256
27 368.707 368.159 368.623
28 369.215 368.808 369.188
29 369.593 369.609 369.927
30 370.513 370.491 370.463
31 370.676 370.467 371.178
32 371.32 371.264 371.35
33 372.002 372.34 371.86
34 372.733 372.463 372.541
35 373.121 372.988 373.355
36 373.51 374.015 374.164
37 374.35 374.631 374.457
38 374.684 374.951 374.816
39 375.31 375.377 375.549
40 375.749 376.118 376.145
41 377.207 377.185 376.299
42 377.49 377.118 377.162
43 377.837 377.967 377.727
44 378.652 378.167 378.554
45 379.353 378.941 379.231
46 379.538 379.796 379.426
47 380.59 380.09 379.76
48 381.042 380.966 380.714
49 381.099 381.37 381.457
50 381.96 381.848 381.989
51 382.926 382.153 382.554
52 383.213 382.908 383.055
53 383.464 383.61 384.103
54 384.525 384.37 384.579
55 385.117 384.706 384.693
56 385.065 385.51 385.18
57 386.32 385.936 386.154
58 386.457 386.456 386.81
59 387.5 387.075 387.452
60 387.826 387.644 387.565
61 388.48 388.697 388.464
62 388.856 388.999 389.049
63 389.367 389.72 389.605
64 389.877 389.995 390.057
65 390.99 390.627 390.535
66 391.538 391.173 391.298
67 391.836 392.037 392.104
68 392.799 392.69 392.819
69 393.356 392.842 392.888
70 393.845 393.86 393.686
71 394.528 394.534 394.018
72 394.777 394.964 394.54
73 395.728 395.756 395.813
74 396.202 396.177 396.096
75 396.293 396.516 396.675
76 396.799 397.063 397.411
77 397.653 397.96 397.722
78 398.23 397.99 398.535
79 399.047 398.771 398.864
80 399.331 399.256 399.441
81 399.887 399.903 399.987
82 400.558 400.775 400.819
83 401.512 401.515 401.012
84 401.936 401.825 401.753
85 402.125 402.564 402.159
86 402.935 403.029 403.236
87 403.606 403.453 403.464
88 403.988 404.157 403.944
89 404.418 405.162 404.943
90 405.402 405.231 405.128
91 406.312 406.323 406.144
92 406.476 406.527 406.733
93 407.012 407.14 406.741
94 407.958 407.739 407.638
95 408.362 408.273 408.493
96 408.676 409.022 408.745
97 409.628 409.419 409.734
98 410.049 410.295 410.265
99 410.573 410.844 410.808
100 411.306 410.943 411.144
101 412.008 412.218 411.504
102 412.318 412.661 412.569
103 413.261 412.791 412.804
104 413.768 413.567 413.601
105 414.178 414.107 414.156
106 414.346 414.57 414.983
107 415.57 415.347 415.372
108 416.133 415.705 415.625
109 416.338 416.58 416.736
110 417.189 417.234 417.125
111 417.697 418.114 417.475
112 417.904 418.116 418.06
113 418.988 418.906 418.714
114 419.512 419.586 419.494
115 419.954 420.128 419.836
116 420.421 420.363 420.422
117 421.342 421.249 421.475
118 421.962 421.612 421.761
119 422.633 422.301 422.574
120 422.806 422.743 422.835
121 423.8 423.592 423.309
122 424.135 424.297 424.04
123 424.897 424.821 424.882
124 424.873 425.308 425.036
125 425.702 425.739 425.929
126 426.313 426.521 426.687
127 427.103 427.245 427.308
128 427.404 427.579 427.17
129 428.512 428.467 428.473
130 429.04 429.037 429.039
131 429.129 429.425 429.298
132 429.513 429.635 429.914
133 430.538 430.554 430.633
134 431.529 431.511 431.31
135 431.894 431.65 431.808
136 431.945 432.037 432.169
137 432.96 432.772 433.131
138 433.65 433.631 433.689
139 434.25 434.028 434.038
140 434.365 434.274 434.232
ITEM: TIMESTEP
6400
ITEM: NUMBER OF ATOMS
140
ITEM: BOX BOUNDS pp pp pp
0.0000000000000000e+00 7.5000000000000000e+02
0.0000000000000000e+00 7.5000000000000000e+02
0.0000000000000000e+00 7.5000000000000000e+02
ITEM: ATOMS id x y z
1 353.271 353.654 353.218
2 354.166 353.846 353.744
3 354.505 354.213 354.062
4 355.024 355.115 354.84
5 355.848 355.977 355.837
6 356.009 356.446 356.166
7 356.907 356.228 356.9
8 357.596 357.019 357.129
9 358.345 358.34 358.018
10 358.477 358.793 358.345
11 359.039 359.225 358.691
12 359.839 359.634 359.41
13 360.381 360.418 360.228
14 360.363 360.46 360.546
15 361.043 361.621 361.738
16 362.389 361.71 362.001
17 363.167 362.551 362.583
18 363.427 362.818 362.971
19 363.546 364.128 364.034
20 364.54 364.264 364.657
21 364.895 365.229 365.354
22 365.503 365.525 365.251
23 366.116 366.286 366.307
24 366.669 366.64 366.649
25 367.935 367.896 367.739
26 367.926 367.962 368.326
27 368.771 368.107 368.67
28 369.252 368.759 369.22
29 369.561 369.581 369.967
30 370.565 370.539 370.504
31 370.659 370.406 371.268
32 371.308 371.24 371.343
33 371.986 372.396 371.813
34 372.76 372.432 372.527
35 373.125 372.963 373.409
36 373.464 374.077 374.259
37 374.337 374.678 374.467
38 374.627 374.951 374.787
39 375.28 375.36 375.57
40 375.681 376.129 376.162
41 377.306 377.279 376.204
42 377.532 377.081 377.134
43 377.844 378.003 377.711
44 378.703 378.115 378.584
45 379.412 378.912 379.263
46 379.517 379.831 379.381
47 380.684 380.077 379.677
48 381.103 381.011 380.705
49 381.031 381.361 381.467
50 381.957 381.82 381.992
51 383.018 382.08 382.566
52 383.238 382.868 383.046
53 383.402 383.579 384.178
54 384.568 384.38 384.635
55 385.176 384.677 384.661
56 384.985 385.525 385.125
57 386.37 385.903 386.168
58 386.413 386.411 386.841
59 387.566 387.051 387.508
60 387.836 387.615 387.519
61 388.49 388.754 388.471
62 388.824 388.996 389.058
63 389.33 389.759 389.62
64 389.825 389.968 390.044
65 391.038 390.597 390.486
66 391.578 391.134 391.287
67 391.827 392.071 392.152
68 392.871 392.739 392.895
69 393.409 392.785 392.841
70 393.878 393.895 393.685
71 394.593 394.6 393.974
72 394.773 395 394.485
73 395.788 395.823 395.891
74 396.237 396.206 396.108
75 396.233 396.505 396.697
76 396.726 397.047 397.469
77 397.625 397.998 397.709
78 398.197 397.905 398.567
79 399.075 398.74 398.853
80 399.299 399.208 399.434
81 399.836 399.856 399.958
82 400.521 400.784 400.838
83 401.566 401.57 400.958
84 401.961 401.827 401.739
85 402.053 402.585 402.094
86 402.904 403.018 403.27
87 403.607 403.421 403.435
88 403.953 404.158 403.899
89 404.336 405.239 404.973
90 405.397 405.19 405.065
91 406.39 406.403 406.186
92 406.473 406.535 406.785
93 406.984 407.14 406.655
94 407.998 407.733 407.609
95 408.377 408.27 408.537
96 408.644 409.064 408.728
97 409.658 409.405 409.787
98 410.034 410.333 410.296
99 410.561 410.889 410.846
100 411.337 410.896 411.14
101 412.047 412.301 411.434
102 412.286 412.702 412.59
103 413.322 412.752 412.768
104 413.826 413.581 413.622
105 414.181 414.094 414.153
106 414.246 414.518 415.019
107 415.624 415.354 415.384
108 416.196 415.677 415.58
109 416.3 416.594 416.783
110 417.195 417.25 417.118
111 417.705 418.211 417.435
112 417.846 418.105 418.037
113 419.015 418.915 418.682
114 419.511 419.601 419.489
115 419.943 420.155 419.8
116 420.403 420.332 420.405
117 421.369 421.256 421.53
118 421.981 421.556 421.738
119 422.694 422.291 422.622
120 422.798 422.723 422.834
121 423.85 423.597 423.254
122 424.115 424.312 424
123 424.94 424.847 424.921
124 424.81 425.338 425.008
125 425.656 425.7 425.931
126 426.256 426.508 426.709
127 427.117 427.288 427.366
128 427.384 427.596 427.099
129 428.562 428.508 428.515
130 429.061 429.057 429.06
131 429.075 429.433 429.28
132 429.447 429.595 429.934
133 430.517 430.536 430.632
134 431.578 431.557 431.312
135 431.928 431.631 431.823
136 431.903 432.015 432.175
137 432.95 432.721 433.158
138 433.648 433.625 433.695
139 434.28 434.011 434.022
140 434.34 434.229 434.178
ITEM: TIMESTEP
6500
ITEM: NUMBER OF ATOMS
140
ITEM: BOX BOUNDS pp pp pp
0.0000000000000000e+00 7.5000000000000000e+02
0.0000000000000000e+00 7.5000000000000000e+02
0.0000000000000000e+00 7.5000000000000000e+02
ITEM: ATOMS id x y z
1 353.238 353.688 353.176
2 354.22 353.843 353.724
3 354.545 354.202 354.024
4 355.041 355.148 354.825
5 355.857 356.008 355.844
6 355.972 356.485 356.157
7 356.954 356.157 356.946
8 357.649 356.971 357.101
9 358.385 358.379 358
10 358.461 358.832 358.306
11 359.047 359.265 358.639
12 359.872 359.632 359.369
13 360.372 360.415 360.191
14 360.269 360.383 360.483
15 360.991 361.669 361.806
16 362.456 361.66 362.002
17 363.238 362.514 362.552
18 363.457 362.743 362.922
19 363.519 364.202 364.091
20 364.573 364.25 364.712
21 364.862 365.253 365.4
22 365.489 365.514 365.192
23 366.126 366.327 366.352
24 366.665 366.63 366.641
25 368.025 367.979 367.795
26 367.926 367.967 368.395
27 368.835 368.056 368.716
28 369.29 368.711 369.251
29 369.529 369.553 370.006
30 370.617 370.586 370.545
31 370.643 370.345 371.357
32 371.295 371.216 371.337
33 371.971 372.451 371.768
34 372.786 372.402 372.513
35 373.129 372.939 373.462
36 373.419 374.138 374.352
37 374.324 374.725 374.477
38 374.57 374.951 374.759
39 375.249 375.344 375.59
40 375.614 376.139 376.178
41 377.403 377.372 376.111
42 377.574 377.045 377.107
43 377.852 378.038 377.695
44 378.754 378.063 378.614
45 379.47 378.883 379.295
46 379.496 379.866 379.337
47 380.776 380.065 379.594
48 381.163 381.056 380.697
49 380.965 381.351 381.476
50 381.953 381.793 381.994
51 383.109 382.008 382.578
52 383.263 382.828 383.037
53 383.342 383.549 384.252
54 384.611 384.39 384.689
55 385.233 384.648 384.629
56 384.906 385.54 385.071
57 386.42 385.871 386.183
58 386.369 386.367 386.872
59 387.632 387.027 387.564
60 387.845 387.586 387.474
61 388.501 388.81 388.478
62 388.792 388.994 389.066
63 389.295 389.798 389.634
64 389.773 389.942 390.03
65 391.085 390.567 390.437
66 391.617 391.096 391.275
67 391.817 392.104 392.199
68 392.943 392.786 392.97
69 393.462 392.729 392.795
70 393.91 393.93 393.683
71 394.656 394.666 393.93
72 394.768 395.035 394.43
73 395.848 395.888 395.969
74 396.27 396.235 396.12
75 396.174 396.494 396.72
76 396.655 397.031 397.526
77 397.598 398.035 397.696
78 398.164 397.822 398.598
79 399.103 398.709 398.842
80 399.268 399.161 399.426
81 399.786 399.81 399.93
82 400.485 400.793 400.857
83 401.619 401.623 400.906
84 401.985 401.828 401.725
85 401.981 402.606 402.03
86 402.874 403.008 403.303
87 403.608 403.39 403.406
88 403.918 404.158 403.854
89 404.255 405.314 405.002
90 405.392 405.149 405.003
91 406.468 406.483 406.227
92 406.47 406.543 406.836
93 406.957 407.139 406.569
94 408.037 407.726 407.581
95 408.393 408.267 408.58
96 408.612 409.105 408.71
97 409.688 409.391 409.84
98 410.02 410.37 410.326
99 410.548 410.934 410.883
100 411.368 410.849 411.135
101 412.086 412.384 411.365
102 412.254 412.743 412.611
103 413.383 412.713 412.732
104 413.883 413.596 413.644
105 414.183 414.081 414.15
106 414.148 414.467 415.055
107 415.677 415.36 415.395
108 416.259 415.65 415.536
109 416.262 416.607 416.83
110 417.201 417.265 417.11
111 417.712 418.307 417.395
112 417.789 418.093 418.013
113 419.042 418.924 418.65
114 419.511 419.616 419.485
115 419.933 420.181 419.766
116 420.386 420.302 420.387
117 421.396 421.264 421.585
118 422 421.501 421.715
119 422.753 422.28 422.669
120 422.792 422.702 422.834
121 423.899 423.602 423.2
122 424.096 424.327 423.96
123 424.982 424.873 424.96
124 424.747 425.367 424.979
125 425.609 425.662 425.932
126 426.199 426.495 426.732
127 427.13 427.331 427.423
128 427.364 427.613 427.03
129 428.611 428.548 428.557
130 429.081 429.077 429.081
131 429.021 429.442 429.261
132 429.382 429.555 429.954
133 430.496 430.518 430.631
134 431.627 431.601 431.314
135 431.961 431.613 431.838
136 431.861 431.993 432.18
137 432.94 432.671 433.185
138 433.646 433.619 433.701
139 434.31 433.994 434.007
140 434.315 434.185 434.124
ITEM: TIMESTEP
6600
ITEM: NUMBER OF ATOMS
140
ITEM: BOX BOUNDS pp pp pp
0.0000000000000000e+00 7.5000000000000000e+02
0.0000000000000000e+00 7.5000000000000000e+02
0.0000000000000000e+00 7.5000000000000000e+02
ITEM: ATOMS id x y z
1 353.205 353.721 353.134
2 354.273 353.841 353.704
3 354.583 354.191 353.987
4 355.058 355.181 354.81
5 355.866 356.038 355.851
6 355.936 356.525 356.149
7 357 356.086 356.991
8 357.701 356.925 357.074
9 358.424 358.418 357.983
10 358.446 358.87 358.268
11 359.055 359.305 358.588
12 359.905 359.63 359.328
13 360.362 360.412 360.156
14 360.176 360.307 360.421
15 360.94 361.716 361.873
16 362.524 361.611 362.003
17 363.308 362.478 362.521
18 363.488 362.669 362.874
19 363.493 364.276 364.149
20 364.607 364.236 364.765
21 364.829 365.278 365.446
22 365.475 365.503 365.135
23 366.137 366.367 366.395
24 366.662 366.621 366.634
25 368.112 368.061 367.849
26 367.925 367.973 368.463
27 368.898 368.007 368.762
28 369.326 368.664 369.283
29 369.499 369.526 370.045
30 370.667 370.632 370.585
31 370.626 370.285 371.445
32 371.283 371.192 371.331
33 371.956 372.506 371.723
34 372.812 372.371 372.499
35 373.132 372.915 373.515
36 373.374 374.198 374.444
37 374.312 374.771 374.486
38 374.515 374.952 374.731
39 375.22 375.329 375.61
40 375.548 376.15 376.194
41 377.5 377.464 376.018
42 377.616 377.009 377.081
43 377.859 378.072 377.679
44 378.804 378.012 378.643
45 379.527 378.854 379.327
46 379.476 379.9 379.294
47 380.868 380.053 379.513
48 381.222 381.1 380.688
49 380.899 381.342 381.485
50 381.95 381.766 381.996
51 383.199 381.937 382.59
52 383.287 382.789 383.028
53 383.282 383.52 384.325
54 384.654 384.4 384.742
55 385.291 384.62 384.598
56 384.828 385.554 385.017
57 386.469 385.84 386.197
58 386.326 386.324 386.902
59 387.697 387.004 387.618
60 387.855 387.558 387.429
61 388.51 388.866 388.486
62 388.76 388.992 389.074
63 389.259 389.836 389.649
64 389.722 389.916 390.017
65 391.131 390.538 390.389
66 391.656 391.059 391.264
67 391.808 392.137 392.245
68 393.013 392.833 393.044