LAMMPS (2 Aug 2023 - Update 1)
OMP_NUM_THREADS environment is not set. Defaulting to 1 thread. (src/comm.cpp:98)
  using 1 OpenMP thread(s) per MPI task
units real
dimension 3
boundary p p p

atom_style full
pair_style lj/cut/coul/debye 0.1 24.1 15.0
bond_style harmonic
# angle_style harmonic
# dihedral_style quadratic
read_data polymer.data
Reading data file ...
  orthogonal box = (0 0 0) to (750 750 750)
  1 by 1 by 1 MPI processor grid
  reading atoms ...
  140 atoms
  reading velocities ...
  140 velocities
  scanning bonds ...
  1 = max bonds/atom
  reading bonds ...
  139 bonds
Finding 1-2 1-3 1-4 neighbors ...
  special bond factors lj:    0        0        0       
  special bond factors coul:  0        0        0       
     2 = max # of 1-2 neighbors
     2 = max # of 1-3 neighbors
     4 = max # of 1-4 neighbors
     6 = max # of special neighbors
  special bonds CPU = 0.000 seconds
  read_data CPU = 0.004 seconds

pair_coeff * * 2.5 3.80
dielectric 80.0

thermo 100
thermo_style custom step temp pe press vol lx density
dump mymindump all custom 10 dump.min.lammpstrj id x y z

# fix mynpt all npt temp 300.0 300.0 100.0 iso 0.0 0.0 10000.0
fix mynve all nve
fix rgfix all spring/rg 500.0 30
minimize 0 0 10000 10000
Generated 0 of 9730 mixed pair_coeff terms from geometric mixing rule
Neighbor list info ...
  update: every = 1 steps, delay = 0 steps, check = yes
  max neighbors/atom: 2000, page size: 100000
  master list distance cutoff = 26.1
  ghost atom cutoff = 26.1
  binsize = 13.05, bins = 58 58 58
  1 neighbor lists, perpetual/occasional/extra = 1 0 0
  (1) pair lj/cut/coul/debye, perpetual
      attributes: half, newton on
      pair build: half/bin/newton
      stencil: half/bin/3d
      bin: standard
Per MPI rank memory allocation (min/avg/max) = 8.518 | 8.518 | 8.518 Mbytes
   Step          Temp          PotEng         Press          Volume           Lx          Density    
         0   679755.49      3822.7279      30.07037       4.21875e+08    750            4.6917564e-05
       100   679755.49      3530.1063      30.10369       4.21875e+08    750            4.6917564e-05
       200   679755.49      3281.9601      30.129855      4.21875e+08    750            4.6917564e-05
       300   679755.49      3103.6926      30.147326      4.21875e+08    750            4.6917564e-05
       400   679755.49      2924.9866      30.1677        4.21875e+08    750            4.6917564e-05
       500   679755.49      2760.9589      30.185187      4.21875e+08    750            4.6917564e-05
       600   679755.49      2621.2095      30.19705       4.21875e+08    750            4.6917564e-05
       700   679755.49      2489.3325      30.211871      4.21875e+08    750            4.6917564e-05
       800   679755.49      2362.2643      30.224953      4.21875e+08    750            4.6917564e-05
       900   679755.49      2232.2103      30.23645       4.21875e+08    750            4.6917564e-05
      1000   679755.49      2100.1928      30.25124       4.21875e+08    750            4.6917564e-05
      1100   679755.49      1984.243       30.265117      4.21875e+08    750            4.6917564e-05
      1200   679755.49      1870.1007      30.275025      4.21875e+08    750            4.6917564e-05
      1300   679755.49      1745.8251      30.287601      4.21875e+08    750            4.6917564e-05
      1400   679755.49      1607.0762      30.304088      4.21875e+08    750            4.6917564e-05
      1500   679755.49      1483.416       30.315406      4.21875e+08    750            4.6917564e-05
      1600   679755.49      1344.3898      30.330013      4.21875e+08    750            4.6917564e-05
      1700   679755.49      1214.4132      30.3432        4.21875e+08    750            4.6917564e-05
      1800   679755.49      1099.3172      30.354263      4.21875e+08    750            4.6917564e-05
      1900   679755.49      967.55986      30.368201      4.21875e+08    750            4.6917564e-05
      2000   679755.49      854.79755      30.380006      4.21875e+08    750            4.6917564e-05
      2100   679755.49      754.78437      30.388926      4.21875e+08    750            4.6917564e-05
      2200   679755.49      640.78509      30.399873      4.21875e+08    750            4.6917564e-05
      2300   679755.49      519.03453      30.411046      4.21875e+08    750            4.6917564e-05
      2400   679755.49      415.19938      30.420686      4.21875e+08    750            4.6917564e-05
      2500   679755.49      293.27396      30.431829      4.21875e+08    750            4.6917564e-05
      2600   679755.49      183.91418      30.439458      4.21875e+08    750            4.6917564e-05
      2700   679755.49      64.177337      30.451287      4.21875e+08    750            4.6917564e-05
      2800   679755.49     -49.080092      30.458933      4.21875e+08    750            4.6917564e-05
      2900   679755.49     -169.09789      30.467313      4.21875e+08    750            4.6917564e-05
      3000   679755.49     -274.45752      30.47665       4.21875e+08    750            4.6917564e-05
      3100   679755.49     -389.45019      30.48181       4.21875e+08    750            4.6917564e-05
      3200   679755.49     -507.41604      30.490545      4.21875e+08    750            4.6917564e-05
      3300   679755.49     -551.81786      30.517506      4.21875e+08    750            4.6917564e-05
      3400   679755.49     -551.81796      30.517636      4.21875e+08    750            4.6917564e-05
      3500   679755.49     -551.81796      30.517636      4.21875e+08    750            4.6917564e-05
      3600   679755.49     -551.81796      30.517636      4.21875e+08    750            4.6917564e-05
      3700   679755.49     -551.81796      30.517636      4.21875e+08    750            4.6917564e-05
      3800   679755.49     -551.81796      30.517636      4.21875e+08    750            4.6917564e-05
      3900   679755.49     -551.81796      30.517636      4.21875e+08    750            4.6917564e-05
      4000   679755.49     -551.81796      30.517636      4.21875e+08    750            4.6917564e-05
      4100   679755.49     -551.81796      30.517636      4.21875e+08    750            4.6917564e-05
      4200   679755.49     -551.81796      30.517636      4.21875e+08    750            4.6917564e-05
      4300   679755.49     -551.81796      30.517636      4.21875e+08    750            4.6917564e-05
      4400   679755.49     -551.81796      30.517636      4.21875e+08    750            4.6917564e-05
      4500   679755.49     -551.81796      30.517636      4.21875e+08    750            4.6917564e-05
      4600   679755.49     -551.81796      30.517636      4.21875e+08    750            4.6917564e-05
      4700   679755.49     -551.81796      30.517636      4.21875e+08    750            4.6917564e-05
      4800   679755.49     -551.81796      30.517636      4.21875e+08    750            4.6917564e-05
      4900   679755.49     -551.81796      30.517636      4.21875e+08    750            4.6917564e-05
      5000   679755.49     -551.81796      30.517636      4.21875e+08    750            4.6917564e-05
      5100   679755.49     -551.81796      30.517636      4.21875e+08    750            4.6917564e-05
      5200   679755.49     -551.81796      30.517636      4.21875e+08    750            4.6917564e-05
      5300   679755.49     -551.81796      30.517636      4.21875e+08    750            4.6917564e-05
      5400   679755.49     -551.81796      30.517636      4.21875e+08    750            4.6917564e-05
      5500   679755.49     -551.81796      30.517636      4.21875e+08    750            4.6917564e-05
      5600   679755.49     -551.81796      30.517636      4.21875e+08    750            4.6917564e-05
      5700   679755.49     -551.81796      30.517636      4.21875e+08    750            4.6917564e-05
      5800   679755.49     -551.81796      30.517636      4.21875e+08    750            4.6917564e-05
      5848   679755.49     -551.81796      30.517636      4.21875e+08    750            4.6917564e-05
Loop time of 0.590081 on 1 procs for 5848 steps with 140 atoms

99.1% CPU use with 1 MPI tasks x 1 OpenMP threads

Minimization stats:
  Stopping criterion = max force evaluations
  Energy initial, next-to-last, final = 
      3822.72789284807  -551.817955096563  -551.817955096563
  Force two-norm initial, final = 16.323816 2.0155947e-11
  Force max component initial, final = 6.66417 1.8500756e-12
  Final line search alpha, max atom move = 1 1.8500756e-12
  Iterations, force evaluations = 5848 10000

MPI task timing breakdown:
Section |  min time  |  avg time  |  max time  |%varavg| %total
---------------------------------------------------------------
Pair    | 0.43597    | 0.43597    | 0.43597    |   0.0 | 73.88
Bond    | 0.015295   | 0.015295   | 0.015295   |   0.0 |  2.59
Neigh   | 0.028359   | 0.028359   | 0.028359   |   0.0 |  4.81
Comm    | 0.0018986  | 0.0018986  | 0.0018986  |   0.0 |  0.32
Output  | 0.087792   | 0.087792   | 0.087792   |   0.0 | 14.88
Modify  | 0          | 0          | 0          |   0.0 |  0.00
Other   |            | 0.02077    |            |       |  3.52

Nlocal:            140 ave         140 max         140 min
Histogram: 1 0 0 0 0 0 0 0 0 0
Nghost:              0 ave           0 max           0 min
Histogram: 1 0 0 0 0 0 0 0 0 0
Neighs:           2763 ave        2763 max        2763 min
Histogram: 1 0 0 0 0 0 0 0 0 0

Total # of neighbors = 2763
Ave neighs/atom = 19.735714
Ave special neighs/atom = 5.9142857
Neighbor list builds = 310
Dangerous builds = 0

undump mymindump
dump mydmp all custom 100 dump.lammpstrj id x y z

# replicate 3 3 4
# fix mydeform all deform 1 x final 0.0 2500.0 y final 0.0 2500.0 z final 0.0 2500.0 units box

# compute myRDF all rdf 50
# fix 1 all ave/time 100 1 100 c_myRDF[*] file tmp.rdf mode vector
fix mynve all nve
# fix mynpt all npt temp 300.0 300.0 100.0 iso 0.0 0.0 1000.0
fix mylgv all langevin 300.0 300.0 40 1321432
neigh_modify every 1 delay 5 check yes
timestep 0.005
run 100000
Generated 0 of 9730 mixed pair_coeff terms from geometric mixing rule
Per MPI rank memory allocation (min/avg/max) = 7.393 | 7.393 | 7.393 Mbytes
   Step          Temp          PotEng         Press          Volume           Lx          Density    
      5848   679755.49     -551.81796      30.517636      4.21875e+08    750            4.6917564e-05
      5900   671088.71     -549.79824      30.130134      4.21875e+08    750            4.6917564e-05
      6000   654361.7      -534.33674      29.389972      4.21875e+08    750            4.6917564e-05
      6100   638336.03     -502.21306      28.692574      4.21875e+08    750            4.6917564e-05
      6200   622535.99     -448.98127      28.019562      4.21875e+08    750            4.6917564e-05
      6300   607172.28     -367.21326      27.385536      4.21875e+08    750            4.6917564e-05
      6400   591783.28     -244.92186      26.777923      4.21875e+08    750            4.6917564e-05
      6500   576500.16     -63.593405      26.215089      4.21875e+08    750            4.6917564e-05
      6600   561899.42      204.27536      25.741214      4.21875e+08    750            4.6917564e-05
      6700   547018.01      597.42202      25.338887      4.21875e+08    750            4.6917564e-05
      6800   532321.83      1165.2305      25.061487      4.21875e+08    750            4.6917564e-05
      6900   517298.14      1957.3686      24.918404      4.21875e+08    750            4.6917564e-05
      7000   501569.17      2998.0557      24.907905      4.21875e+08    750            4.6917564e-05
      7100   486244.62      4250.9824      25.054737      4.21875e+08    750            4.6917564e-05
      7200   471475.79      5604.8521      25.290965      4.21875e+08    750            4.6917564e-05
      7300   456683.22      6904.2482      25.486494      4.21875e+08    750            4.6917564e-05
      7400   442956.58      8007.8009      25.595673      4.21875e+08    750            4.6917564e-05
      7500   429988.55      8847.1267      25.558611      4.21875e+08    750            4.6917564e-05
      7600   417957.2       9439.8818      25.394474      4.21875e+08    750            4.6917564e-05
      7700   406758.49      9830.3839      25.128028      4.21875e+08    750            4.6917564e-05
      7800   396319.83      10011.681      24.752233      4.21875e+08    750            4.6917564e-05
      7900   387047.78      9923.4884      24.246578      4.21875e+08    750            4.6917564e-05
      8000   378679.37      9558.5377      23.595171      4.21875e+08    750            4.6917564e-05
      8100   370862.89      8993.8084      22.833233      4.21875e+08    750            4.6917564e-05
      8200   363096.43      8344.6738      22.014571      4.21875e+08    750            4.6917564e-05
      8300   356282.89      7711.2972      21.246         4.21875e+08    750            4.6917564e-05
      8400   348771.62      7149.9817      20.490944      4.21875e+08    750            4.6917564e-05
      8500   341383.1       6668.0493      19.791344      4.21875e+08    750            4.6917564e-05
      8600   333839.53      6243.9102      19.120759      4.21875e+08    750            4.6917564e-05
      8700   326671.98      5839.2206      18.477937      4.21875e+08    750            4.6917564e-05
      8800   319576.31      5415.9174      17.82438       4.21875e+08    750            4.6917564e-05
      8900   312896.25      4962.3629      17.168216      4.21875e+08    750            4.6917564e-05
      9000   306435.15      4490.9616      16.508994      4.21875e+08    750            4.6917564e-05
      9100   299946.61      4036.3077      15.858917      4.21875e+08    750            4.6917564e-05
      9200   293519.86      3629.1354      15.242565      4.21875e+08    750            4.6917564e-05
      9300   287185.35      3286.2476      14.672743      4.21875e+08    750            4.6917564e-05
      9400   280702.08      3012.4967      14.142212      4.21875e+08    750            4.6917564e-05
      9500   274328.35      2802.7238      13.659303      4.21875e+08    750            4.6917564e-05
      9600   268295.6       2648.0129      13.228572      4.21875e+08    750            4.6917564e-05
      9700   261942.01      2539.8345      12.814729      4.21875e+08    750            4.6917564e-05
      9800   255732.86      2471.0248      12.433972      4.21875e+08    750            4.6917564e-05
      9900   249551.66      2435.9218      12.077319      4.21875e+08    750            4.6917564e-05
     10000   243230.56      2429.6756      11.734029      4.21875e+08    750            4.6917564e-05
     10100   237248.66      2447.647       11.422502      4.21875e+08    750            4.6917564e-05
     10200   231505.93      2485.516       11.135261      4.21875e+08    750            4.6917564e-05
     10300   225734.76      2539.3127      10.857632      4.21875e+08    750            4.6917564e-05
     10400   219982.33      2604.7337      10.588831      4.21875e+08    750            4.6917564e-05
     10500   214367.74      2676.9745      10.330994      4.21875e+08    750            4.6917564e-05
     10600   208942.65      2752.094       10.08379       4.21875e+08    750            4.6917564e-05
     10700   203552.13      2825.2532      9.8370289      4.21875e+08    750            4.6917564e-05
     10800   198574.79      2892.7698      9.6052258      4.21875e+08    750            4.6917564e-05
     10900   193453.16      2951.9155      9.3615172      4.21875e+08    750            4.6917564e-05
     11000   188704.07      3002.0226      9.1286422      4.21875e+08    750            4.6917564e-05
     11100   183828.08      3043.1056      8.884194       4.21875e+08    750            4.6917564e-05
     11200   179284.83      3076.5         8.6497053      4.21875e+08    750            4.6917564e-05
     11300   174873.49      3104.0339      8.4173291      4.21875e+08    750            4.6917564e-05
     11400   170459.27      3128.3396      8.1827686      4.21875e+08    750            4.6917564e-05
     11500   166309.92      3150.8327      7.9589706      4.21875e+08    750            4.6917564e-05
     11600   162522.5       3173.5419      7.7516107      4.21875e+08    750            4.6917564e-05
     11700   158574.6       3197.5108      7.5379707      4.21875e+08    750            4.6917564e-05
     11800   154851.19      3223.7278      7.3359751      4.21875e+08    750            4.6917564e-05
     11900   151083.08      3252.2771      7.1336388      4.21875e+08    750            4.6917564e-05
     12000   147317.02      3283.0214      6.9329788      4.21875e+08    750            4.6917564e-05
     12100   143644.41      3315.7865      6.7380357      4.21875e+08    750            4.6917564e-05
     12200   140081.29      3350.2715      6.5493452      4.21875e+08    750            4.6917564e-05
     12300   136640.44      3386.5054      6.3674892      4.21875e+08    750            4.6917564e-05
     12400   133311.91      3424.1353      6.1918407      4.21875e+08    750            4.6917564e-05
     12500   130086.76      3462.8788      6.0217747      4.21875e+08    750            4.6917564e-05
     12600   126890.91      3502.4746      5.8538277      4.21875e+08    750            4.6917564e-05
     12700   123823.5       3542.7039      5.6922931      4.21875e+08    750            4.6917564e-05
     12800   120741.95      3583.5611      5.5307706      4.21875e+08    750            4.6917564e-05
     12900   117691.21      3624.7344      5.3711755      4.21875e+08    750            4.6917564e-05
     13000   114780.61      3666.4771      5.2185048      4.21875e+08    750            4.6917564e-05
     13100   111994.59      3708.752       5.0720392      4.21875e+08    750            4.6917564e-05
     13200   109190.84      3751.9498      4.9256953      4.21875e+08    750            4.6917564e-05
     13300   106660.44      3795.7267      4.792341       4.21875e+08    750            4.6917564e-05
     13400   104123.02      3840.1797      4.659421       4.21875e+08    750            4.6917564e-05
     13500   101625.62      3885.5092      4.529192       4.21875e+08    750            4.6917564e-05
     13600   99150.721      3931.7237      4.400903       4.21875e+08    750            4.6917564e-05
     13700   96740.978      3978.7201      4.2763989      4.21875e+08    750            4.6917564e-05
     13800   94395.708      4026.4339      4.155634       4.21875e+08    750            4.6917564e-05
     13900   92030.533      4075.094       4.0349792      4.21875e+08    750            4.6917564e-05
     14000   89817.977      4124.5426      3.9221027      4.21875e+08    750            4.6917564e-05
     14100   87626.422      4174.6411      3.8109387      4.21875e+08    750            4.6917564e-05
     14200   85466.643      4225.4492      3.7020148      4.21875e+08    750            4.6917564e-05
     14300   83330.553      4276.6869      3.5948278      4.21875e+08    750            4.6917564e-05
     14400   81310.02       4328.2626      3.4934883      4.21875e+08    750            4.6917564e-05
     14500   79348.339      4380.0628      3.3953343      4.21875e+08    750            4.6917564e-05
     14600   77361.114      4431.9689      3.2965229      4.21875e+08    750            4.6917564e-05
     14700   75548.765      4483.7214      3.2058518      4.21875e+08    750            4.6917564e-05
     14800   73698.725      4535.2966      3.1137428      4.21875e+08    750            4.6917564e-05
     14900   71805.219      4586.2607      3.0196747      4.21875e+08    750            4.6917564e-05
     15000   70054.156      4636.3177      2.9318198      4.21875e+08    750            4.6917564e-05
     15100   68267.063      4685.5521      2.8422085      4.21875e+08    750            4.6917564e-05
     15200   66594.794      4733.5043      2.7573293      4.21875e+08    750            4.6917564e-05
     15300   64979.496      4780.2746      2.6746069      4.21875e+08    750            4.6917564e-05
     15400   63363.688      4825.3611      2.5911815      4.21875e+08    750            4.6917564e-05
     15500   61863.183      4868.941       2.5123393      4.21875e+08    750            4.6917564e-05
     15600   60381.357      4911.2433      2.4338992      4.21875e+08    750            4.6917564e-05
     15700   58925.939      4952.2448      2.3561866      4.21875e+08    750            4.6917564e-05
     15800   57526.836      4992.0462      2.280626       4.21875e+08    750            4.6917564e-05
     15900   56174.982      5030.7138      2.2068316      4.21875e+08    750            4.6917564e-05
     16000   54933.52       5068.3362      2.1376922      4.21875e+08    750            4.6917564e-05
     16100   53692.913      5105.0804      2.0683977      4.21875e+08    750            4.6917564e-05
     16200   52393.103      5141.3641      1.9965725      4.21875e+08    750            4.6917564e-05
     16300   51271.363      5177.222       1.9328594      4.21875e+08    750            4.6917564e-05
     16400   50116.339      5212.8808      1.8679151      4.21875e+08    750            4.6917564e-05
     16500   48863.858      5248.3026      1.7989027      4.21875e+08    750            4.6917564e-05
     16600   47591.847      5283.5624      1.7293366      4.21875e+08    750            4.6917564e-05
     16700   46533.652      5318.7436      1.6697729      4.21875e+08    750            4.6917564e-05
     16800   45389.124      5353.846       1.6067094      4.21875e+08    750            4.6917564e-05
     16900   44332.37       5388.9084      1.5480157      4.21875e+08    750            4.6917564e-05
     17000   43303.343      5423.9296      1.4909642      4.21875e+08    750            4.6917564e-05
     17100   42285.682      5458.9965      1.4348884      4.21875e+08    750            4.6917564e-05
     17200   41312.149      5494.1068      1.381264       4.21875e+08    750            4.6917564e-05
     17300   40394.925      5529.2978      1.3306306      4.21875e+08    750            4.6917564e-05
     17400   39488.673      5564.5131      1.2809323      4.21875e+08    750            4.6917564e-05
     17500   38589.273      5599.7102      1.2319721      4.21875e+08    750            4.6917564e-05
     17600   37714.6        5634.875       1.1845254      4.21875e+08    750            4.6917564e-05
     17700   36863.142      5669.9262      1.1385208      4.21875e+08    750            4.6917564e-05
     17800   36001.713      5704.9761      1.0924358      4.21875e+08    750            4.6917564e-05
     17900   35314.692      5739.7979      1.0544099      4.21875e+08    750            4.6917564e-05
     18000   34604.226      5774.4193      1.0155818      4.21875e+08    750            4.6917564e-05
     18100   33780.911      5808.8284      0.97197587     4.21875e+08    750            4.6917564e-05
     18200   33028.273      5842.9522      0.93177118     4.21875e+08    750            4.6917564e-05
     18300   32272.129      5876.7411      0.8916213      4.21875e+08    750            4.6917564e-05
     18400   31556.757      5910.2359      0.85349304     4.21875e+08    750            4.6917564e-05
     18500   30807.355      5943.4002      0.81401103     4.21875e+08    750            4.6917564e-05
     18600   30157.451      5976.1296      0.779095       4.21875e+08    750            4.6917564e-05
     18700   29531.177      6008.3706      0.7453311      4.21875e+08    750            4.6917564e-05
     18800   28833.37       6040.1632      0.70845149     4.21875e+08    750            4.6917564e-05
     18900   28183.94       6071.4761      0.67386437     4.21875e+08    750            4.6917564e-05
     19000   27570.471      6102.3898      0.64098557     4.21875e+08    750            4.6917564e-05
     19100   26967.007      6132.8728      0.60863817     4.21875e+08    750            4.6917564e-05
     19200   26398.032      6162.8622      0.57793298     4.21875e+08    750            4.6917564e-05
     19300   25843.62       6192.4508      0.54797361     4.21875e+08    750            4.6917564e-05
     19400   25310.064      6221.6291      0.51901705     4.21875e+08    750            4.6917564e-05
     19500   24786.615      6250.4038      0.4906271      4.21875e+08    750            4.6917564e-05
     19600   24248.694      6278.6441      0.46163515     4.21875e+08    750            4.6917564e-05
     19700   23752.673      6306.3632      0.43456611     4.21875e+08    750            4.6917564e-05
     19800   23294.985      6333.5851      0.4093037      4.21875e+08    750            4.6917564e-05
     19900   22850.433      6360.4235      0.38468716     4.21875e+08    750            4.6917564e-05
     20000   22455.975      6386.8295      0.36237218     4.21875e+08    750            4.6917564e-05
     20100   21975.416      6412.7495      0.3362649      4.21875e+08    750            4.6917564e-05
     20200   21509.834      6438.2047      0.31090635     4.21875e+08    750            4.6917564e-05
     20300   21065.374      6463.1756      0.28656433     4.21875e+08    750            4.6917564e-05
     20400   20603.566      6487.6355      0.26150298     4.21875e+08    750            4.6917564e-05
     20500   20203.781      6511.5644      0.23927363     4.21875e+08    750            4.6917564e-05
     20600   19780.037      6534.9834      0.21600801     4.21875e+08    750            4.6917564e-05
     20700   19464.58       6557.8761      0.19763281     4.21875e+08    750            4.6917564e-05
     20800   19130.872      6580.313       0.17843761     4.21875e+08    750            4.6917564e-05
     20900   18818.013      6602.24        0.16017004     4.21875e+08    750            4.6917564e-05
     21000   18477.957      6623.8388      0.14073867     4.21875e+08    750            4.6917564e-05
     21100   18177.086      6645.1208      0.12313674     4.21875e+08    750            4.6917564e-05
     21200   17844.553      6665.9657      0.10417297     4.21875e+08    750            4.6917564e-05
     21300   17528.959      6686.3731      0.086022975    4.21875e+08    750            4.6917564e-05
     21400   17229.377      6706.4135      0.068660467    4.21875e+08    750            4.6917564e-05
     21500   16937.26       6726.0683      0.051692508    4.21875e+08    750            4.6917564e-05
     21600   16677.008      6745.2271      0.036176907    4.21875e+08    750            4.6917564e-05
     21700   16322.01       6763.9259      0.016441398    4.21875e+08    750            4.6917564e-05
     21800   16083.509      6782.1765      0.0019815643   4.21875e+08    750            4.6917564e-05
     21900   15790.933      6799.9649     -0.01485087     4.21875e+08    750            4.6917564e-05
     22000   15510.811      6817.3112     -0.031077313    4.21875e+08    750            4.6917564e-05
     22100   15220.562      6834.2466     -0.047695654    4.21875e+08    750            4.6917564e-05
     22200   15002.073      6850.8541     -0.061050656    4.21875e+08    750            4.6917564e-05
     22300   14703.72       6866.9473     -0.077978176    4.21875e+08    750            4.6917564e-05
     22400   14433.542      6882.5419     -0.093624475    4.21875e+08    750            4.6917564e-05
     22500   14239.467      6897.7714     -0.10580271     4.21875e+08    750            4.6917564e-05
     22600   14014.964      6912.6268     -0.1193027      4.21875e+08    750            4.6917564e-05
     22700   13855.165      6927.1023     -0.12984912     4.21875e+08    750            4.6917564e-05
     22800   13664.668      6941.2046     -0.14174468     4.21875e+08    750            4.6917564e-05
     22900   13444.056      6954.9611     -0.15493967     4.21875e+08    750            4.6917564e-05
     23000   13309.496      6968.4503     -0.16419816     4.21875e+08    750            4.6917564e-05
     23100   13162.53       6981.6183     -0.17396853     4.21875e+08    750            4.6917564e-05
     23200   13013.132      6994.5032     -0.18377482     4.21875e+08    750            4.6917564e-05
     23300   12867.179      7006.9897     -0.19335949     4.21875e+08    750            4.6917564e-05
     23400   12682.747      7019.1699     -0.20458379     4.21875e+08    750            4.6917564e-05
     23500   12514.137      7030.8962     -0.21507934     4.21875e+08    750            4.6917564e-05
     23600   12334.563      7042.255      -0.22602288     4.21875e+08    750            4.6917564e-05
     23700   12162.638      7053.2814     -0.2366005      4.21875e+08    750            4.6917564e-05
     23800   11961.566      7064.0068     -0.24844269     4.21875e+08    750            4.6917564e-05
     23900   11852.688      7074.3633     -0.2561342      4.21875e+08    750            4.6917564e-05
     24000   11768.705      7084.4564     -0.26267516     4.21875e+08    750            4.6917564e-05
     24100   11667.844      7094.313      -0.26990604     4.21875e+08    750            4.6917564e-05
     24200   11561.417      7103.7761     -0.27735856     4.21875e+08    750            4.6917564e-05
     24300   11458.454      7113.012      -0.28462534     4.21875e+08    750            4.6917564e-05
     24400   11318.188      7121.9805     -0.29356063     4.21875e+08    750            4.6917564e-05
     24500   11214.6        7130.6144     -0.3008279      4.21875e+08    750            4.6917564e-05
     24600   11138.363      7138.9579     -0.30681332     4.21875e+08    750            4.6917564e-05
     24700   11048.806      7147.0328     -0.31333931     4.21875e+08    750            4.6917564e-05
     24800   10975.724      7154.8329     -0.31907569     4.21875e+08    750            4.6917564e-05
     24900   10843.18       7162.3965     -0.32741367     4.21875e+08    750            4.6917564e-05
     25000   10709.177      7169.6843     -0.3357973      4.21875e+08    750            4.6917564e-05
     25100   10593.884      7176.5677     -0.34329474     4.21875e+08    750            4.6917564e-05
     25200   10502.552      7183.0809     -0.34966252     4.21875e+08    750            4.6917564e-05
     25300   10424.883      7189.2096     -0.35537564     4.21875e+08    750            4.6917564e-05
     25400   10369.462      7195.008      -0.36003844     4.21875e+08    750            4.6917564e-05
     25500   10305.565      7200.5214     -0.36503672     4.21875e+08    750            4.6917564e-05
     25600   10240.942      7205.7454     -0.37001461     4.21875e+08    750            4.6917564e-05
     25700   10126.468      7210.7165     -0.37720381     4.21875e+08    750            4.6917564e-05
     25800   10088.244      7215.4743     -0.38090979     4.21875e+08    750            4.6917564e-05
     25900   10049.714      7219.9614     -0.38458005     4.21875e+08    750            4.6917564e-05
     26000   9946.8994      7224.1517     -0.39106202     4.21875e+08    750            4.6917564e-05
     26100   9894.6627      7228.1416     -0.39520905     4.21875e+08    750            4.6917564e-05
     26200   9819.7038      7231.8717     -0.40032606     4.21875e+08    750            4.6917564e-05
     26300   9807.2204      7235.3743     -0.40258518     4.21875e+08    750            4.6917564e-05
     26400   9740.7363      7238.6171     -0.40723515     4.21875e+08    750            4.6917564e-05
     26500   9670.8726      7241.6602     -0.41195708     4.21875e+08    750            4.6917564e-05
     26600   9633.3175      7244.4476     -0.41518763     4.21875e+08    750            4.6917564e-05
     26700   9557.4509      7246.9851     -0.4200936      4.21875e+08    750            4.6917564e-05
     26800   9510.8352      7249.3161     -0.42364215     4.21875e+08    750            4.6917564e-05
     26900   9473.5316      7251.4353     -0.42671809     4.21875e+08    750            4.6917564e-05
     27000   9447.5932      7253.394      -0.42922143     4.21875e+08    750            4.6917564e-05
     27100   9387.999       7255.0968     -0.43318195     4.21875e+08    750            4.6917564e-05
     27200   9355.268       7256.5402     -0.43589393     4.21875e+08    750            4.6917564e-05
     27300   9349.167       7257.7595     -0.43737994     4.21875e+08    750            4.6917564e-05
     27400   9320.7072      7258.7239     -0.43982391     4.21875e+08    750            4.6917564e-05
     27500   9291.0242      7259.4612     -0.44227247     4.21875e+08    750            4.6917564e-05
     27600   9237.0839      7259.9726     -0.44577825     4.21875e+08    750            4.6917564e-05
     27700   9195.5551      7260.2067     -0.44866908     4.21875e+08    750            4.6917564e-05
     27800   9175.2177      7260.2017     -0.45055301     4.21875e+08    750            4.6917564e-05
     27900   9154.6615      7259.9833     -0.45239154     4.21875e+08    750            4.6917564e-05
     28000   9106.5264      7259.5553     -0.45542291     4.21875e+08    750            4.6917564e-05
     28100   9102.432       7258.9883     -0.45644033     4.21875e+08    750            4.6917564e-05
     28200   9102.8697      7258.2447     -0.45721114     4.21875e+08    750            4.6917564e-05
     28300   9060.2642      7257.3248     -0.45988029     4.21875e+08    750            4.6917564e-05
     28400   9049.0441      7256.2908     -0.46109699     4.21875e+08    750            4.6917564e-05
     28500   9003.3075      7255.0865     -0.46381563     4.21875e+08    750            4.6917564e-05
     28600   9006.9312      7253.6683     -0.4642821      4.21875e+08    750            4.6917564e-05
     28700   8953.9661      7252.0626     -0.46724027     4.21875e+08    750            4.6917564e-05
     28800   8993.1518      7250.2744     -0.46601992     4.21875e+08    750            4.6917564e-05
     28900   8998.9903      7248.3347     -0.4662534      4.21875e+08    750            4.6917564e-05
     29000   9006.202       7246.2016     -0.46637784     4.21875e+08    750            4.6917564e-05
     29100   8963.4225      7243.8984     -0.46869538     4.21875e+08    750            4.6917564e-05
     29200   8908.5971      7241.429      -0.47151316     4.21875e+08    750            4.6917564e-05
     29300   8926.93        7238.8027     -0.47099528     4.21875e+08    750            4.6917564e-05
     29400   8894.6682      7236.0033     -0.4727001      4.21875e+08    750            4.6917564e-05
     29500   8860.0291      7233.026      -0.47447619     4.21875e+08    750            4.6917564e-05
     29600   8852.1482      7229.9507     -0.47502865     4.21875e+08    750            4.6917564e-05
     29700   8859.3818      7226.791      -0.47488015     4.21875e+08    750            4.6917564e-05
     29800   8883.1802      7223.4566     -0.4739473      4.21875e+08    750            4.6917564e-05
     29900   8888.8394      7219.9605     -0.47379918     4.21875e+08    750            4.6917564e-05
     30000   8875.209       7216.296      -0.47447725     4.21875e+08    750            4.6917564e-05
     30100   8880.166       7212.5025     -0.47429233     4.21875e+08    750            4.6917564e-05
     30200   8888.6542      7208.4957     -0.47391478     4.21875e+08    750            4.6917564e-05
     30300   8904.6851      7204.324      -0.4731777      4.21875e+08    750            4.6917564e-05
     30400   8939.884       7200.0051     -0.47155077     4.21875e+08    750            4.6917564e-05
     30500   8919.4699      7195.5713     -0.47239737     4.21875e+08    750            4.6917564e-05
     30600   8895.3258      7191.0134     -0.47339679     4.21875e+08    750            4.6917564e-05
     30700   8904.6525      7186.4118     -0.47286231     4.21875e+08    750            4.6917564e-05
     30800   8851.799       7181.727      -0.47510383     4.21875e+08    750            4.6917564e-05
     30900   8857.4832      7176.9531     -0.474698       4.21875e+08    750            4.6917564e-05
     31000   8868.7568      7172.1111     -0.47402283     4.21875e+08    750            4.6917564e-05
     31100   8883.9798      7167.2362     -0.4731505      4.21875e+08    750            4.6917564e-05
     31200   8912.1657      7162.2777     -0.47167288     4.21875e+08    750            4.6917564e-05
     31300   8918.0676      7157.2095     -0.47116221     4.21875e+08    750            4.6917564e-05
     31400   8921.7515      7151.9922     -0.47071797     4.21875e+08    750            4.6917564e-05
     31500   8937.7379      7146.6299     -0.46968232     4.21875e+08    750            4.6917564e-05
     31600   8936.7874      7141.2065     -0.46938552     4.21875e+08    750            4.6917564e-05
     31700   8921.0019      7135.6708     -0.46974381     4.21875e+08    750            4.6917564e-05
     31800   8897.15        7130.0708     -0.4704346      4.21875e+08    750            4.6917564e-05
     31900   8884.1135      7124.2998     -0.47061579     4.21875e+08    750            4.6917564e-05
     32000   8842.1891      7118.4132     -0.47207159     4.21875e+08    750            4.6917564e-05
     32100   8910.2827      7112.4159     -0.46856424     4.21875e+08    750            4.6917564e-05
     32200   8907.8837      7106.3478     -0.46821066     4.21875e+08    750            4.6917564e-05
     32300   8912.6177      7100.1887     -0.46752107     4.21875e+08    750            4.6917564e-05
     32400   8912.001       7093.9818     -0.46705965     4.21875e+08    750            4.6917564e-05
     32500   8889.7308      7087.742      -0.46755358     4.21875e+08    750            4.6917564e-05
     32600   8898.6027      7081.4201     -0.46663953     4.21875e+08    750            4.6917564e-05
     32700   8937.4736      7074.9357     -0.46435661     4.21875e+08    750            4.6917564e-05
     32800   8929.6489      7068.3628     -0.46415324     4.21875e+08    750            4.6917564e-05
     32900   8953.816       7061.7059     -0.46249879     4.21875e+08    750            4.6917564e-05
     33000   8943.906       7054.934      -0.46236445     4.21875e+08    750            4.6917564e-05
     33100   8979.9379      7048.0771     -0.46014879     4.21875e+08    750            4.6917564e-05
     33200   8982.6351      7041.115      -0.45942108     4.21875e+08    750            4.6917564e-05
     33300   9000.4811      7034.0593     -0.4579947      4.21875e+08    750            4.6917564e-05
     33400   9001.6552      7026.9019     -0.45730161     4.21875e+08    750            4.6917564e-05
     33500   8985.2928      7019.6474     -0.45737738     4.21875e+08    750            4.6917564e-05
     33600   9016.7978      7012.2701     -0.45528972     4.21875e+08    750            4.6917564e-05
     33700   9050.0036      7004.8052     -0.45311962     4.21875e+08    750            4.6917564e-05
     33800   9030.4295      6997.2901     -0.45330718     4.21875e+08    750            4.6917564e-05
     33900   9023.303       6989.6579     -0.45291209     4.21875e+08    750            4.6917564e-05
     34000   9029.8009      6981.968      -0.45188882     4.21875e+08    750            4.6917564e-05
     34100   9022.8564      6974.2506     -0.45145911     4.21875e+08    750            4.6917564e-05
     34200   9043.8747      6966.4877     -0.44976089     4.21875e+08    750            4.6917564e-05
     34300   8997.91        6958.655      -0.45105366     4.21875e+08    750            4.6917564e-05
     34400   9027.8366      6950.7382     -0.44892237     4.21875e+08    750            4.6917564e-05
     34500   9004.1696      6942.7176     -0.44918246     4.21875e+08    750            4.6917564e-05
     34600   9018.393       6934.6916     -0.44773602     4.21875e+08    750            4.6917564e-05
     34700   9046.2877      6926.5816     -0.44566126     4.21875e+08    750            4.6917564e-05
     34800   9026.6107      6918.3471     -0.44570231     4.21875e+08    750            4.6917564e-05
     34900   9045.8441      6909.9756     -0.44398        4.21875e+08    750            4.6917564e-05
     35000   9051.1927      6901.5184     -0.4428645      4.21875e+08    750            4.6917564e-05
     35100   9098.4257      6893.0385     -0.43986633     4.21875e+08    750            4.6917564e-05
     35200   9160.0673      6884.5481     -0.43622062     4.21875e+08    750            4.6917564e-05
     35300   9126.0832      6876.0512     -0.4368606      4.21875e+08    750            4.6917564e-05
     35400   9105.9677      6867.5015     -0.43686081     4.21875e+08    750            4.6917564e-05
     35500   9100.4673      6858.9303     -0.43619059     4.21875e+08    750            4.6917564e-05
     35600   9067.3624      6850.3202     -0.43674406     4.21875e+08    750            4.6917564e-05
     35700   9101.2938      6841.6968     -0.43428394     4.21875e+08    750            4.6917564e-05
     35800   9122.9164      6832.9879     -0.43235907     4.21875e+08    750            4.6917564e-05
     35900   9149.1396      6824.1988     -0.43020423     4.21875e+08    750            4.6917564e-05
     36000   9183.1904      6815.3553     -0.42769402     4.21875e+08    750            4.6917564e-05
     36100   9190.1519      6806.5104     -0.42639287     4.21875e+08    750            4.6917564e-05
     36200   9183.6305      6797.6183     -0.42569555     4.21875e+08    750            4.6917564e-05
     36300   9155.0679      6788.6758     -0.4259824      4.21875e+08    750            4.6917564e-05
     36400   9184.1295      6779.66       -0.42367032     4.21875e+08    750            4.6917564e-05
     36500   9161.5633      6770.5889     -0.42366187     4.21875e+08    750            4.6917564e-05
     36600   9172.4356      6761.4689     -0.42214271     4.21875e+08    750            4.6917564e-05
     36700   9172.9977      6752.2641     -0.42107998     4.21875e+08    750            4.6917564e-05
     36800   9158.737       6743.0007     -0.4206687      4.21875e+08    750            4.6917564e-05
     36900   9165.932       6733.6509     -0.41928737     4.21875e+08    750            4.6917564e-05
     37000   9162.724       6724.3014     -0.41836499     4.21875e+08    750            4.6917564e-05
     37100   9135.3552      6714.8992     -0.41852228     4.21875e+08    750            4.6917564e-05
     37200   9106.5431      6705.4018     -0.41873389     4.21875e+08    750            4.6917564e-05
     37300   9106.8544      6695.8208     -0.41761364     4.21875e+08    750            4.6917564e-05
     37400   9113.3395      6686.1416     -0.41620811     4.21875e+08    750            4.6917564e-05
     37500   9135.087       6676.4442     -0.41409706     4.21875e+08    750            4.6917564e-05
     37600   9123.9654      6666.7359     -0.41345455     4.21875e+08    750            4.6917564e-05
     37700   9117.9931      6657.0328     -0.41258566     4.21875e+08    750            4.6917564e-05
     37800   9121.7791      6647.2754     -0.4112726      4.21875e+08    750            4.6917564e-05
     37900   9105.5108      6637.4833     -0.41084493     4.21875e+08    750            4.6917564e-05
     38000   9064.4484      6627.6261     -0.41152238     4.21875e+08    750            4.6917564e-05
     38100   9062.3831      6617.7113     -0.41045295     4.21875e+08    750            4.6917564e-05
     38200   9029.0652      6607.7726     -0.41078883     4.21875e+08    750            4.6917564e-05
     38300   9030.8528      6597.8272     -0.4095622      4.21875e+08    750            4.6917564e-05
     38400   9037.4731      6587.8476     -0.40811018     4.21875e+08    750            4.6917564e-05
     38500   9026.6907      6577.7696     -0.40743184     4.21875e+08    750            4.6917564e-05
     38600   9020.616       6567.6689     -0.40654107     4.21875e+08    750            4.6917564e-05
     38700   9010.1916      6557.5074     -0.40584531     4.21875e+08    750            4.6917564e-05
     38800   8983.7355      6547.3258     -0.40585831     4.21875e+08    750            4.6917564e-05
     38900   9010.7754      6537.0858     -0.40345996     4.21875e+08    750            4.6917564e-05
     39000   9021.8645      6526.7803     -0.4017662      4.21875e+08    750            4.6917564e-05
     39100   9014.7945      6516.4424     -0.40088035     4.21875e+08    750            4.6917564e-05
     39200   9016.4835      6506.0464     -0.39958857     4.21875e+08    750            4.6917564e-05
     39300   9033.6229      6495.657      -0.39760324     4.21875e+08    750            4.6917564e-05
     39400   9026.7447      6485.2818     -0.39668848     4.21875e+08    750            4.6917564e-05
     39500   8977.8812      6474.9222     -0.39765357     4.21875e+08    750            4.6917564e-05
     39600   8951.615       6464.5246     -0.39760707     4.21875e+08    750            4.6917564e-05
     39700   8998.2253      6454.0275     -0.39428338     4.21875e+08    750            4.6917564e-05
     39800   8983.5764      6443.4605     -0.3936988      4.21875e+08    750            4.6917564e-05
     39900   8923.8648      6432.9219     -0.39513971     4.21875e+08    750            4.6917564e-05
     40000   8890.0004      6422.414      -0.39542386     4.21875e+08    750            4.6917564e-05
     40100   8914.7418      6411.8056     -0.39307998     4.21875e+08    750            4.6917564e-05
     40200   8903.6208      6401.1448     -0.39234678     4.21875e+08    750            4.6917564e-05
     40300   8875.4352      6390.4647     -0.39237544     4.21875e+08    750            4.6917564e-05
     40400   8896.7434      6379.7935     -0.39018065     4.21875e+08    750            4.6917564e-05
     40500   8909.0695      6369.1317     -0.38837597     4.21875e+08    750            4.6917564e-05
     40600   8861.6282      6358.498      -0.38925015     4.21875e+08    750            4.6917564e-05
     40700   8849.4254      6347.8248     -0.38853345     4.21875e+08    750            4.6917564e-05
     40800   8816.8593      6337.1504     -0.38872553     4.21875e+08    750            4.6917564e-05
     40900   8812.4262      6326.472      -0.38764624     4.21875e+08    750            4.6917564e-05
     41000   8848.5449      6315.6906     -0.38473594     4.21875e+08    750            4.6917564e-05
     41100   8844.5968      6304.861      -0.38362065     4.21875e+08    750            4.6917564e-05
     41200   8836.0517      6294.0823     -0.38270501     4.21875e+08    750            4.6917564e-05
     41300   8902.1592      6283.1415     -0.37844158     4.21875e+08    750            4.6917564e-05
     41400   8889.0812      6272.1716     -0.37773384     4.21875e+08    750            4.6917564e-05
     41500   8816.8474      6261.2185     -0.37969301     4.21875e+08    750            4.6917564e-05
     41600   8792.0691      6250.2118     -0.37951456     4.21875e+08    750            4.6917564e-05
     41700   8776.3717      6239.2423     -0.37893331     4.21875e+08    750            4.6917564e-05
     41800   8825.2332      6228.2803     -0.37545553     4.21875e+08    750            4.6917564e-05
     41900   8842.2794      6217.2494     -0.37338417     4.21875e+08    750            4.6917564e-05
     42000   8844.0568      6206.2441     -0.3719937      4.21875e+08    750            4.6917564e-05
     42100   8810.5847      6195.2655     -0.37218366     4.21875e+08    750            4.6917564e-05
     42200   8824.6565      6184.3106     -0.37024262     4.21875e+08    750            4.6917564e-05
     42300   8863.9736      6173.3768     -0.36717329     4.21875e+08    750            4.6917564e-05
     42400   8871.0457      6162.4397     -0.36554724     4.21875e+08    750            4.6917564e-05
     42500   8866.7075      6151.4999     -0.36442537     4.21875e+08    750            4.6917564e-05
     42600   8903.9562      6140.51       -0.3614341      4.21875e+08    750            4.6917564e-05
     42700   8888.7768      6129.3667     -0.36080251     4.21875e+08    750            4.6917564e-05
     42800   8894.7751      6118.292      -0.35921745     4.21875e+08    750            4.6917564e-05
     42900   8883.3331      6107.2444     -0.35840878     4.21875e+08    750            4.6917564e-05
     43000   8896.8552      6096.2165     -0.3564805      4.21875e+08    750            4.6917564e-05
     43100   8850.2477      6085.1606     -0.35726404     4.21875e+08    750            4.6917564e-05
     43200   8819.0801      6074.1138     -0.3573562      4.21875e+08    750            4.6917564e-05
     43300   8828.6073      6063.1787     -0.35563299     4.21875e+08    750            4.6917564e-05
     43400   8805.1113      6052.2334     -0.35539895     4.21875e+08    750            4.6917564e-05
     43500   8861.8302      6041.1917     -0.35156301     4.21875e+08    750            4.6917564e-05
     43600   8883.1677      6030.1579     -0.34931408     4.21875e+08    750            4.6917564e-05
     43700   8852.2157      6019.1436     -0.34942034     4.21875e+08    750            4.6917564e-05
     43800   8831.4521      6008.1713     -0.34907839     4.21875e+08    750            4.6917564e-05
     43900   8873.6892      5997.1856     -0.34591276     4.21875e+08    750            4.6917564e-05
     44000   8881.8866      5986.2359     -0.34428492     4.21875e+08    750            4.6917564e-05
     44100   8872.3344      5975.261      -0.34343832     4.21875e+08    750            4.6917564e-05
     44200   8868.4564      5964.3112     -0.34233736     4.21875e+08    750            4.6917564e-05
     44300   8879.1327      5953.3852     -0.34058585     4.21875e+08    750            4.6917564e-05
     44400   8874.108       5942.4317     -0.33954197     4.21875e+08    750            4.6917564e-05
     44500   8882.3879      5931.5657     -0.33791297     4.21875e+08    750            4.6917564e-05
     44600   8887.9626      5920.6546     -0.33641844     4.21875e+08    750            4.6917564e-05
     44700   8900.7349      5909.7362     -0.33459158     4.21875e+08    750            4.6917564e-05
     44800   8865.1188      5898.832      -0.33493159     4.21875e+08    750            4.6917564e-05
     44900   8848.8735      5887.9189     -0.33440115     4.21875e+08    750            4.6917564e-05
     45000   8827.6013      5876.9927     -0.33408805     4.21875e+08    750            4.6917564e-05
     45100   8842.2435      5866.064      -0.3321518      4.21875e+08    750            4.6917564e-05
     45200   8847.2753      5855.1234     -0.33065153     4.21875e+08    750            4.6917564e-05
     45300   8832.2419      5844.2481     -0.33005161     4.21875e+08    750            4.6917564e-05
     45400   8855.872       5833.3543     -0.32771119     4.21875e+08    750            4.6917564e-05
     45500   8876.212       5822.4014     -0.32551378     4.21875e+08    750            4.6917564e-05
     45600   8884.0299      5811.4561     -0.3238881      4.21875e+08    750            4.6917564e-05
     45700   8871.5894      5800.5229     -0.3231647      4.21875e+08    750            4.6917564e-05
     45800   8842.3806      5789.6234     -0.32318467     4.21875e+08    750            4.6917564e-05
     45900   8780.6884      5778.8195     -0.32466532     4.21875e+08    750            4.6917564e-05
     46000   8768.7483      5768.0743     -0.32393001     4.21875e+08    750            4.6917564e-05
     46100   8767.6425      5757.314      -0.32272163     4.21875e+08    750            4.6917564e-05
     46200   8761.0385      5746.5855     -0.32177807     4.21875e+08    750            4.6917564e-05
     46300   8756.2358      5735.8439     -0.32074721     4.21875e+08    750            4.6917564e-05
     46400   8772.1576      5725.0777     -0.31877951     4.21875e+08    750            4.6917564e-05
     46500   8713.0626      5714.3118     -0.32018282     4.21875e+08    750            4.6917564e-05
     46600   8711.4174      5703.5458     -0.31902495     4.21875e+08    750            4.6917564e-05
     46700   8687.3509      5692.8323     -0.3188889      4.21875e+08    750            4.6917564e-05
     46800   8696.0097      5682.1095     -0.31728402     4.21875e+08    750            4.6917564e-05
     46900   8694.8666      5671.3734     -0.31611285     4.21875e+08    750            4.6917564e-05
     47000   8670.9099      5660.6182     -0.31597629     4.21875e+08    750            4.6917564e-05
     47100   8617.2773      5649.9234     -0.31719129     4.21875e+08    750            4.6917564e-05
     47200   8634.5514      5639.2125     -0.31524343     4.21875e+08    750            4.6917564e-05
     47300   8607.5819      5628.5068     -0.31530356     4.21875e+08    750            4.6917564e-05
     47400   8575.6992      5617.851      -0.31560042     4.21875e+08    750            4.6917564e-05
     47500   8591.6252      5607.1825     -0.3137459      4.21875e+08    750            4.6917564e-05
     47600   8538.543       5596.5366     -0.31499895     4.21875e+08    750            4.6917564e-05
     47700   8518.253       5585.9492     -0.31478311     4.21875e+08    750            4.6917564e-05
     47800   8484.8716      5575.3948     -0.31514741     4.21875e+08    750            4.6917564e-05
     47900   8504.8242      5564.8068     -0.31311478     4.21875e+08    750            4.6917564e-05
     48000   8504.4559      5554.2228     -0.31198777     4.21875e+08    750            4.6917564e-05
     48100   8486.0887      5543.6527     -0.31166716     4.21875e+08    750            4.6917564e-05
     48200   8468.6534      5533.1407     -0.31130115     4.21875e+08    750            4.6917564e-05
     48300   8429.63        5522.7081     -0.31190762     4.21875e+08    750            4.6917564e-05
     48400   8428.8401      5512.3166     -0.31080529     4.21875e+08    750            4.6917564e-05
     48500   8447.2138      5501.9704     -0.30881967     4.21875e+08    750            4.6917564e-05
     48600   8413.6546      5491.6572     -0.30917943     4.21875e+08    750            4.6917564e-05
     48700   8384.7538      5481.3148     -0.309343       4.21875e+08    750            4.6917564e-05
     48800   8394.3523      5470.8952     -0.30777294     4.21875e+08    750            4.6917564e-05
     48900   8380.037       5460.4728     -0.30728099     4.21875e+08    750            4.6917564e-05
     49000   8382.0083      5450.039      -0.30606602     4.21875e+08    750            4.6917564e-05
     49100   8391.6686      5439.6265     -0.30449379     4.21875e+08    750            4.6917564e-05
     49200   8323.4073      5429.2495     -0.30642983     4.21875e+08    750            4.6917564e-05
     49300   8263.0839      5418.9027     -0.30802646     4.21875e+08    750            4.6917564e-05
     49400   8249.9313      5408.5709     -0.30750507     4.21875e+08    750            4.6917564e-05
     49500   8253.1709      5398.2378     -0.30625468     4.21875e+08    750            4.6917564e-05
     49600   8270.7383      5387.8954     -0.30435952     4.21875e+08    750            4.6917564e-05
     49700   8242.7531      5377.5721     -0.30449688     4.21875e+08    750            4.6917564e-05
     49800   8252.6262      5367.2646     -0.30294232     4.21875e+08    750            4.6917564e-05
     49900   8246.361       5356.9134     -0.30210757     4.21875e+08    750            4.6917564e-05
     50000   8214.4986      5346.5338     -0.30242358     4.21875e+08    750            4.6917564e-05
     50100   8239.6455      5336.1554     -0.30017082     4.21875e+08    750            4.6917564e-05
     50200   8208.5049      5325.8021     -0.30043776     4.21875e+08    750            4.6917564e-05
     50300   8208.7883      5315.4391     -0.29930807     4.21875e+08    750            4.6917564e-05
     50400   8212.8632      5305.114      -0.29800931     4.21875e+08    750            4.6917564e-05
     50500   8249.9718      5294.7641     -0.29523669     4.21875e+08    750            4.6917564e-05
     50600   8233.0835      5284.4489     -0.29490437     4.21875e+08    750            4.6917564e-05
     50700   8233.702       5274.1652     -0.29380045     4.21875e+08    750            4.6917564e-05
     50800   8257.1143      5263.8632     -0.29167701     4.21875e+08    750            4.6917564e-05
     50900   8253.14        5253.5273     -0.2908113      4.21875e+08    750            4.6917564e-05
     51000   8258.2825      5243.1605     -0.28952496     4.21875e+08    750            4.6917564e-05
     51100   8248.5931      5232.7844     -0.28888603     4.21875e+08    750            4.6917564e-05
     51200   8194.9204      5222.4392     -0.29020226     4.21875e+08    750            4.6917564e-05
     51300   8190.8846      5212.1156     -0.28931718     4.21875e+08    750            4.6917564e-05
     51400   8177.1862      5201.8156     -0.28888697     4.21875e+08    750            4.6917564e-05
     51500   8146.4298      5191.5058     -0.28924077     4.21875e+08    750            4.6917564e-05
     51600   8161.1785      5181.1874     -0.28754818     4.21875e+08    750            4.6917564e-05
     51700   8156.3664      5170.8709     -0.28675873     4.21875e+08    750            4.6917564e-05
     51800   8198.6869      5160.5559     -0.2838719      4.21875e+08    750            4.6917564e-05
     51900   8191.5456      5150.2267     -0.28321395     4.21875e+08    750            4.6917564e-05
     52000   8189.3302      5139.9362     -0.28233868     4.21875e+08    750            4.6917564e-05
     52100   8160.6445      5129.6022     -0.28264261     4.21875e+08    750            4.6917564e-05
     52200   8104.9679      5119.2665     -0.28414505     4.21875e+08    750            4.6917564e-05
     52300   8089.1004      5108.9171     -0.28387632     4.21875e+08    750            4.6917564e-05
     52400   8101.0523      5098.516      -0.28233908     4.21875e+08    750            4.6917564e-05
     52500   8072.5746      5088.0925     -0.28262512     4.21875e+08    750            4.6917564e-05
     52600   8056.8458      5077.6858     -0.28235433     4.21875e+08    750            4.6917564e-05
     52700   8033.8913      5067.3264     -0.28241195     4.21875e+08    750            4.6917564e-05
     52800   7976.7253      5057.0009     -0.28399957     4.21875e+08    750            4.6917564e-05
     52900   8002.7829      5046.7354     -0.28185687     4.21875e+08    750            4.6917564e-05
     53000   7985.4578      5036.4949     -0.28166169     4.21875e+08    750            4.6917564e-05
     53100   7979.4058      5026.2417     -0.28096956     4.21875e+08    750            4.6917564e-05
     53200   7985.7646      5016.0136     -0.2797229      4.21875e+08    750            4.6917564e-05
     53300   7919.222       5005.8217     -0.2817489      4.21875e+08    750            4.6917564e-05
     53400   7901.1605      4995.6489     -0.28161557     4.21875e+08    750            4.6917564e-05
     53500   7910.8922      4985.4959     -0.28022863     4.21875e+08    750            4.6917564e-05
     53600   7904.3086      4975.41       -0.27959357     4.21875e+08    750            4.6917564e-05
     53700   7921.5491      4965.3461     -0.27788776     4.21875e+08    750            4.6917564e-05
     53800   7915.5236      4955.299      -0.2772334      4.21875e+08    750            4.6917564e-05
     53900   7899.1853      4945.262      -0.27704267     4.21875e+08    750            4.6917564e-05
     54000   7926.3682      4935.1977     -0.27491341     4.21875e+08    750            4.6917564e-05
     54100   7906.7516      4925.1392     -0.27489294     4.21875e+08    750            4.6917564e-05
     54200   7918.1689      4915.1243     -0.27348057     4.21875e+08    750            4.6917564e-05
     54300   7899.025       4905.1251     -0.27342948     4.21875e+08    750            4.6917564e-05
     54400   7862.5403      4895.1629     -0.27414149     4.21875e+08    750            4.6917564e-05
     54500   7804.9554      4885.1937     -0.275797       4.21875e+08    750            4.6917564e-05
     54600   7786.1979      4875.2214     -0.27568855     4.21875e+08    750            4.6917564e-05
     54700   7831.3831      4865.2415     -0.27269513     4.21875e+08    750            4.6917564e-05
     54800   7865.8502      4855.2157     -0.27019563     4.21875e+08    750            4.6917564e-05
     54900   7862.8045      4845.1874     -0.26938659     4.21875e+08    750            4.6917564e-05
     55000   7854.8494      4835.1576     -0.26878241     4.21875e+08    750            4.6917564e-05
     55100   7846.7064      4825.1511     -0.26819888     4.21875e+08    750            4.6917564e-05
     55200   7827.0711      4815.1425     -0.2681372      4.21875e+08    750            4.6917564e-05
     55300   7820.6121      4805.1191     -0.26748705     4.21875e+08    750            4.6917564e-05
     55400   7831.6946      4795.1565     -0.26604572     4.21875e+08    750            4.6917564e-05
     55500   7803.6402      4785.205      -0.26636615     4.21875e+08    750            4.6917564e-05
     55600   7785.371       4775.2764     -0.2662529      4.21875e+08    750            4.6917564e-05
     55700   7798.1985      4765.319      -0.26474105     4.21875e+08    750            4.6917564e-05
     55800   7770.712       4755.3508     -0.26504322     4.21875e+08    750            4.6917564e-05
     55900   7747.5626      4745.4479     -0.26517724     4.21875e+08    750            4.6917564e-05
     56000   7722.3463      4735.6244     -0.26540575     4.21875e+08    750            4.6917564e-05
     56100   7731.6817      4725.8239     -0.26408332     4.21875e+08    750            4.6917564e-05
     56200   7707.8284      4716.0732     -0.2642547      4.21875e+08    750            4.6917564e-05
     56300   7718.2866      4706.3356     -0.26288153     4.21875e+08    750            4.6917564e-05
     56400   7689.8025      4696.587      -0.26326902     4.21875e+08    750            4.6917564e-05
     56500   7667.7201      4686.8892     -0.26337332     4.21875e+08    750            4.6917564e-05
     56600   7647.1571      4677.2123     -0.26341323     4.21875e+08    750            4.6917564e-05
     56700   7650.9062      4667.5594     -0.26235821     4.21875e+08    750            4.6917564e-05
     56800   7648.7357      4657.9133     -0.26156471     4.21875e+08    750            4.6917564e-05
     56900   7657.0481      4648.2835     -0.2603015      4.21875e+08    750            4.6917564e-05
     57000   7673.0024      4638.6477     -0.25868956     4.21875e+08    750            4.6917564e-05
     57100   7661.4425      4629.0122     -0.2583063      4.21875e+08    750            4.6917564e-05
     57200   7696.5182      4619.3469     -0.25583488     4.21875e+08    750            4.6917564e-05
     57300   7714.7189      4609.6609     -0.2541147      4.21875e+08    750            4.6917564e-05
     57400   7699.4206      4600.0053     -0.25389436     4.21875e+08    750            4.6917564e-05
     57500   7659.372       4590.4372     -0.25477289     4.21875e+08    750            4.6917564e-05
     57600   7691.7562      4580.8612     -0.25238411     4.21875e+08    750            4.6917564e-05
     57700   7706.3282      4571.2936     -0.25078818     4.21875e+08    750            4.6917564e-05
     57800   7679.5296      4561.7468     -0.25106013     4.21875e+08    750            4.6917564e-05
     57900   7658.5904      4552.2001     -0.25109293     4.21875e+08    750            4.6917564e-05
     58000   7663.5608      4542.6688     -0.24996959     4.21875e+08    750            4.6917564e-05
     58100   7673.1455      4533.1266     -0.24864435     4.21875e+08    750            4.6917564e-05
     58200   7644.9662      4523.5394     -0.2490153      4.21875e+08    750            4.6917564e-05
     58300   7619.202       4514.0135     -0.24927285     4.21875e+08    750            4.6917564e-05
     58400   7584.9074      4504.4918     -0.24991544     4.21875e+08    750            4.6917564e-05
     58500   7571.2281      4495.0146     -0.24963763     4.21875e+08    750            4.6917564e-05
     58600   7589.1852      4485.542      -0.24795303     4.21875e+08    750            4.6917564e-05
     58700   7567.0668      4476.0609     -0.24806903     4.21875e+08    750            4.6917564e-05
     58800   7570.0484      4466.6254     -0.24706834     4.21875e+08    750            4.6917564e-05
     58900   7592.6467      4457.1942     -0.24517602     4.21875e+08    750            4.6917564e-05
     59000   7610.7851      4447.7128     -0.24347111     4.21875e+08    750            4.6917564e-05
     59100   7625.5487      4438.2539     -0.24192138     4.21875e+08    750            4.6917564e-05
     59200   7633.7075      4428.8161     -0.24067429     4.21875e+08    750            4.6917564e-05
     59300   7630.5586      4419.4182     -0.23993018     4.21875e+08    750            4.6917564e-05
     59400   7648.3385      4409.9924     -0.23825318     4.21875e+08    750            4.6917564e-05
     59500   7635.2222      4400.5482     -0.23794696     4.21875e+08    750            4.6917564e-05
     59600   7615.3294      4391.1726     -0.23794194     4.21875e+08    750            4.6917564e-05
     59700   7580.7325      4381.8359     -0.23861058     4.21875e+08    750            4.6917564e-05
     59800   7550.7733      4372.5237     -0.23906853     4.21875e+08    750            4.6917564e-05
     59900   7531.3734      4363.2304     -0.23905689     4.21875e+08    750            4.6917564e-05
     60000   7531.7213      4353.9389     -0.23815507     4.21875e+08    750            4.6917564e-05
     60100   7521.7312      4344.7189     -0.23772443     4.21875e+08    750            4.6917564e-05
     60200   7545.4228      4335.5408     -0.23578928     4.21875e+08    750            4.6917564e-05
     60300   7500.8257      4326.369      -0.23692155     4.21875e+08    750            4.6917564e-05
     60400   7526.7966      4317.2476     -0.23487827     4.21875e+08    750            4.6917564e-05
     60500   7543.9938      4308.1302     -0.2332292      4.21875e+08    750            4.6917564e-05
     60600   7523.6385      4299.0621     -0.23324927     4.21875e+08    750            4.6917564e-05
     60700   7451.3082      4290.0452     -0.23561034     4.21875e+08    750            4.6917564e-05
     60800   7415.7334      4281.0558     -0.23633723     4.21875e+08    750            4.6917564e-05
     60900   7439.7513      4272.0567     -0.23439727     4.21875e+08    750            4.6917564e-05
     61000   7432.2384      4263.0149     -0.23388376     4.21875e+08    750            4.6917564e-05
     61100   7418.1825      4254.0007     -0.23367774     4.21875e+08    750            4.6917564e-05
     61200   7444.4741      4245.0165     -0.23167517     4.21875e+08    750            4.6917564e-05
     61300   7500.4902      4236.0489     -0.22834315     4.21875e+08    750            4.6917564e-05
     61400   7500.2199      4227.096      -0.22753321     4.21875e+08    750            4.6917564e-05
     61500   7499.5889      4218.139      -0.22672599     4.21875e+08    750            4.6917564e-05
     61600   7497.5829      4209.1771     -0.22597143     4.21875e+08    750            4.6917564e-05
     61700   7473.2372      4200.2405     -0.22621388     4.21875e+08    750            4.6917564e-05
     61800   7461.7561      4191.3075     -0.22587614     4.21875e+08    750            4.6917564e-05
     61900   7416.5375      4182.3473     -0.22705668     4.21875e+08    750            4.6917564e-05
     62000   7395.3393      4173.4301     -0.2271515      4.21875e+08    750            4.6917564e-05
     62100   7362.4259      4164.5332     -0.22777269     4.21875e+08    750            4.6917564e-05
     62200   7333.4333      4155.6629     -0.22822291     4.21875e+08    750            4.6917564e-05
     62300   7312.2179      4146.8218     -0.22832718     4.21875e+08    750            4.6917564e-05
     62400   7326.0336      4138.0029     -0.2268646      4.21875e+08    750            4.6917564e-05
     62500   7312.7554      4129.178      -0.22660844     4.21875e+08    750            4.6917564e-05
     62600   7288.0159      4120.3758     -0.22686476     4.21875e+08    750            4.6917564e-05
     62700   7263.403       4111.5987     -0.22711405     4.21875e+08    750            4.6917564e-05
     62800   7261.5022      4102.8268     -0.22634508     4.21875e+08    750            4.6917564e-05
     62900   7251.3012      4094.0749     -0.22595738     4.21875e+08    750            4.6917564e-05
     63000   7227.6802      4085.375      -0.22617957     4.21875e+08    750            4.6917564e-05
     63100   7221.6377      4076.6991     -0.22561745     4.21875e+08    750            4.6917564e-05
     63200   7190.5448      4068.0676     -0.22618519     4.21875e+08    750            4.6917564e-05
     63300   7161.198       4059.4463     -0.22667611     4.21875e+08    750            4.6917564e-05
     63400   7134.0272      4050.9059     -0.22708338     4.21875e+08    750            4.6917564e-05
     63500   7109.3154      4042.4119     -0.22739856     4.21875e+08    750            4.6917564e-05
     63600   7094.7685      4033.8988     -0.22726573     4.21875e+08    750            4.6917564e-05
     63700   7110.5213      4025.371      -0.22575728     4.21875e+08    750            4.6917564e-05
     63800   7066.2633      4016.8531     -0.2269397      4.21875e+08    750            4.6917564e-05
     63900   7037.6412      4008.3701     -0.22742546     4.21875e+08    750            4.6917564e-05
     64000   6996.2942      3999.9358     -0.22848164     4.21875e+08    750            4.6917564e-05
     64100   6983.0622      3991.5276     -0.2282747      4.21875e+08    750            4.6917564e-05
     64200   6961.5407      3983.1522     -0.22843793     4.21875e+08    750            4.6917564e-05
     64300   6975.5627      3974.8171     -0.22700126     4.21875e+08    750            4.6917564e-05
     64400   7007.3097      3966.473      -0.22477513     4.21875e+08    750            4.6917564e-05
     64500   6976.8341      3958.1465     -0.22533746     4.21875e+08    750            4.6917564e-05
     64600   6981.4654      3949.8223     -0.22432305     4.21875e+08    750            4.6917564e-05
     64700   6929.6733      3941.626      -0.22585068     4.21875e+08    750            4.6917564e-05
     64800   6920.8187      3933.4181     -0.22546304     4.21875e+08    750            4.6917564e-05
     64900   6937.659       3925.1975     -0.22390872     4.21875e+08    750            4.6917564e-05
     65000   6933.3173      3916.9854     -0.22330277     4.21875e+08    750            4.6917564e-05
     65100   6903.0945      3908.7857     -0.22385587     4.21875e+08    750            4.6917564e-05
     65200   6892.208       3900.6273     -0.22354779     4.21875e+08    750            4.6917564e-05
     65300   6891.8178      3892.5245     -0.2227722      4.21875e+08    750            4.6917564e-05
     65400   6916.496       3884.4315     -0.22086977     4.21875e+08    750            4.6917564e-05
     65500   6876.1845      3876.3987     -0.22187846     4.21875e+08    750            4.6917564e-05
     65600   6871.6385      3868.4051     -0.22129062     4.21875e+08    750            4.6917564e-05
     65700   6870.2306      3860.419      -0.22056793     4.21875e+08    750            4.6917564e-05
     65800   6839.6914      3852.4662     -0.2211533      4.21875e+08    750            4.6917564e-05
     65900   6778.6016      3844.5497     -0.22310876     4.21875e+08    750            4.6917564e-05
     66000   6730.4138      3836.669      -0.22447877     4.21875e+08    750            4.6917564e-05
     66100   6780.3959      3828.8038     -0.2214363      4.21875e+08    750            4.6917564e-05
     66200   6760.5108      3820.9197     -0.22152668     4.21875e+08    750            4.6917564e-05
     66300   6766.2857      3813.07       -0.22046636     4.21875e+08    750            4.6917564e-05
     66400   6765.2027      3805.2627     -0.21971116     4.21875e+08    750            4.6917564e-05
     66500   6756.0855      3797.4962     -0.21932715     4.21875e+08    750            4.6917564e-05
     66600   6762.3062      3789.6944     -0.21824381     4.21875e+08    750            4.6917564e-05
     66700   6765.1857      3781.8917     -0.21731442     4.21875e+08    750            4.6917564e-05
     66800   6767.4496      3774.0852     -0.21640014     4.21875e+08    750            4.6917564e-05
     66900   6812.3069      3766.2833     -0.21356706     4.21875e+08    750            4.6917564e-05
     67000   6786.7315      3758.4568     -0.21388513     4.21875e+08    750            4.6917564e-05
     67100   6744.8105      3750.6355     -0.21493211     4.21875e+08    750            4.6917564e-05
     67200   6765.3456      3742.8697     -0.21317281     4.21875e+08    750            4.6917564e-05
     67300   6723.1472      3735.1222     -0.21422856     4.21875e+08    750            4.6917564e-05
     67400   6722.1678      3727.375      -0.21343911     4.21875e+08    750            4.6917564e-05
     67500   6731.5985      3719.6477     -0.21217895     4.21875e+08    750            4.6917564e-05
     67600   6720.3756      3711.872      -0.2118512      4.21875e+08    750            4.6917564e-05
     67700   6672.0994      3704.143      -0.21318738     4.21875e+08    750            4.6917564e-05
     67800   6662.5975      3696.4586     -0.21278269     4.21875e+08    750            4.6917564e-05
     67900   6633.307       3688.7758     -0.21326214     4.21875e+08    750            4.6917564e-05
     68000   6622.539       3681.0942     -0.21290801     4.21875e+08    750            4.6917564e-05
     68100   6582.5993      3673.4033     -0.2138665      4.21875e+08    750            4.6917564e-05
     68200   6556.5054      3665.7124     -0.21420403     4.21875e+08    750            4.6917564e-05
     68300   6535.0835      3658.0429     -0.21433372     4.21875e+08    750            4.6917564e-05
     68400   6520.904       3650.3886     -0.21413189     4.21875e+08    750            4.6917564e-05
     68500   6488.0091      3642.735      -0.21476835     4.21875e+08    750            4.6917564e-05
     68600   6487.936       3635.1086     -0.21392812     4.21875e+08    750            4.6917564e-05
     68700   6471.9938      3627.489      -0.21379913     4.21875e+08    750            4.6917564e-05
     68800   6436.2867      3619.8341     -0.21454814     4.21875e+08    750            4.6917564e-05
     68900   6418.2983      3612.1861     -0.21449567     4.21875e+08    750            4.6917564e-05
     69000   6442.0366      3604.5361     -0.21257342     4.21875e+08    750            4.6917564e-05
     69100   6432.8805      3596.8898     -0.21213916     4.21875e+08    750            4.6917564e-05
     69200   6423.4243      3589.3241     -0.21173213     4.21875e+08    750            4.6917564e-05
     69300   6398.89        3581.8127     -0.2120029      4.21875e+08    750            4.6917564e-05
     69400   6372.9254      3574.3662     -0.21234026     4.21875e+08    750            4.6917564e-05
     69500   6386.4742      3566.9311     -0.21090535     4.21875e+08    750            4.6917564e-05
     69600   6369.9177      3559.4988     -0.21083366     4.21875e+08    750            4.6917564e-05
     69700   6370.5299      3552.0349     -0.2099957      4.21875e+08    750            4.6917564e-05
     69800   6336.8928      3544.5955     -0.21068739     4.21875e+08    750            4.6917564e-05
     69900   6324.4872      3537.2021     -0.21043782     4.21875e+08    750            4.6917564e-05
     70000   6317.0572      3529.8104     -0.20997723     4.21875e+08    750            4.6917564e-05
     70100   6341.2276      3522.377      -0.20809061     4.21875e+08    750            4.6917564e-05
     70200   6317.2056      3514.9913     -0.20836877     4.21875e+08    750            4.6917564e-05
     70300   6293.5208      3507.6151     -0.20864956     4.21875e+08    750            4.6917564e-05
     70400   6320.829       3500.2856     -0.20663576     4.21875e+08    750            4.6917564e-05
     70500   6314.6735      3492.9863     -0.20613462     4.21875e+08    750            4.6917564e-05
     70600   6322.2787      3485.6867     -0.20502126     4.21875e+08    750            4.6917564e-05
     70700   6314.5321      3478.392      -0.20460531     4.21875e+08    750            4.6917564e-05
     70800   6326.2533      3471.1099     -0.20332378     4.21875e+08    750            4.6917564e-05
     70900   6330.7546      3463.8466     -0.20238148     4.21875e+08    750            4.6917564e-05
     71000   6326.319       3456.543      -0.20183541     4.21875e+08    750            4.6917564e-05
     71100   6313.307       3449.1926     -0.20167291     4.21875e+08    750            4.6917564e-05
     71200   6310.1844      3441.851      -0.20107019     4.21875e+08    750            4.6917564e-05
     71300   6273.1344      3434.528      -0.20200554     4.21875e+08    750            4.6917564e-05
     71400   6276.6089      3427.2471     -0.20113118     4.21875e+08    750            4.6917564e-05
     71500   6295.373       3419.9979     -0.19956298     4.21875e+08    750            4.6917564e-05
     71600   6282.0487      3412.7459     -0.19942501     4.21875e+08    750            4.6917564e-05
     71700   6296.9932      3405.4645     -0.19800957     4.21875e+08    750            4.6917564e-05
     71800   6264.0211      3398.1643     -0.19874229     4.21875e+08    750            4.6917564e-05
     71900   6259.4739      3390.884      -0.19820071     4.21875e+08    750            4.6917564e-05
     72000   6275.5179      3383.6019     -0.19674302     4.21875e+08    750            4.6917564e-05
     72100   6248.1118      3376.331      -0.19723618     4.21875e+08    750            4.6917564e-05
     72200   6247.6959      3369.1037     -0.19652673     4.21875e+08    750            4.6917564e-05
     72300   6230.2401      3361.9096     -0.19656245     4.21875e+08    750            4.6917564e-05
     72400   6235.343       3354.6913     -0.19557488     4.21875e+08    750            4.6917564e-05
     72500   6173.1885      3347.5219     -0.19761477     4.21875e+08    750            4.6917564e-05
     72600   6159.1966      3340.3837     -0.19750279     4.21875e+08    750            4.6917564e-05
     72700   6160.911       3333.2867     -0.19669577     4.21875e+08    750            4.6917564e-05
     72800   6170.6827      3326.2025     -0.19553692     4.21875e+08    750            4.6917564e-05
     72900   6197.9239      3319.0662     -0.19358816     4.21875e+08    750            4.6917564e-05
     73000   6173.4708      3311.8937     -0.19395458     4.21875e+08    750            4.6917564e-05
     73100   6141.3319      3304.742      -0.19466442     4.21875e+08    750            4.6917564e-05
     73200   6124.3944      3297.578      -0.19468265     4.21875e+08    750            4.6917564e-05
     73300   6121.7432      3290.3953     -0.19405848     4.21875e+08    750            4.6917564e-05
     73400   6115.3631      3283.161      -0.19360568     4.21875e+08    750            4.6917564e-05
     73500   6104.9163      3275.908      -0.19334612     4.21875e+08    750            4.6917564e-05
     73600   6103.2109      3268.6736     -0.19268121     4.21875e+08    750            4.6917564e-05
     73700   6043.8935      3261.4607     -0.19460645     4.21875e+08    750            4.6917564e-05
     73800   6046.8753      3254.2736     -0.19374309     4.21875e+08    750            4.6917564e-05
     73900   6056.463       3247.0703     -0.19258419     4.21875e+08    750            4.6917564e-05
     74000   6050.2337      3239.8646     -0.1921396      4.21875e+08    750            4.6917564e-05
[...]
    187700   372.49071      333.06533     -0.14852929     4.21875e+08    750            4.6917564e-05
    187800   372.71665      332.45303     -0.14834762     4.21875e+08    750            4.6917564e-05
    187900   380.30112      331.83145     -0.14783312     4.21875e+08    750            4.6917564e-05
    188000   389.65461      331.20728     -0.14724937     4.21875e+08    750            4.6917564e-05
    188100   395.0528       330.58413     -0.14684042     4.21875e+08    750            4.6917564e-05
    188200   396.2549       329.97232     -0.14662515     4.21875e+08    750            4.6917564e-05
    188300   390.75369      329.36759     -0.14671917     4.21875e+08    750            4.6917564e-05
    188400   394.3013       328.77262     -0.14640666     4.21875e+08    750            4.6917564e-05
    188500   391.51153      328.1833      -0.14637774     4.21875e+08    750            4.6917564e-05
    188600   376.64189      327.59803     -0.14689391     4.21875e+08    750            4.6917564e-05
    188700   371.42966      327.03894     -0.14698666     4.21875e+08    750            4.6917564e-05
    188800   376.53825      326.53825     -0.14661291     4.21875e+08    750            4.6917564e-05
    188900   371.0443       325.98673     -0.14673603     4.21875e+08    750            4.6917564e-05
    189000   363.96047      325.44727     -0.14693402     4.21875e+08    750            4.6917564e-05
    189100   367.93363      324.9182      -0.14663082     4.21875e+08    750            4.6917564e-05
    189200   374.228        324.38749     -0.14620425     4.21875e+08    750            4.6917564e-05
    189300   366.62763      323.84404     -0.14640327     4.21875e+08    750            4.6917564e-05
    189400   370.92189      323.32057     -0.14605096     4.21875e+08    750            4.6917564e-05
    189500   370.61542      322.81222     -0.14587818     4.21875e+08    750            4.6917564e-05
    189600   381.10342      322.2924      -0.14522232     4.21875e+08    750            4.6917564e-05
    189700   384.91436      321.75095     -0.14486769     4.21875e+08    750            4.6917564e-05
    189800   386.23535      321.18742     -0.14464493     4.21875e+08    750            4.6917564e-05
    189900   384.44476      320.61014     -0.14456062     4.21875e+08    750            4.6917564e-05
    190000   382.84984      320.0391      -0.14446699     4.21875e+08    750            4.6917564e-05
    190100   386.56937      319.49197     -0.14412935     4.21875e+08    750            4.6917564e-05
    190200   385.33543      318.93067     -0.14401292     4.21875e+08    750            4.6917564e-05
    190300   382.5212       318.37315     -0.14396992     4.21875e+08    750            4.6917564e-05
    190400   381.8428       317.82434     -0.1438389      4.21875e+08    750            4.6917564e-05
    190500   379.13298      317.28435     -0.14380256     4.21875e+08    750            4.6917564e-05
    190600   381.15201      316.72919     -0.14358403     4.21875e+08    750            4.6917564e-05
    190700   372.11703      316.16777     -0.14388124     4.21875e+08    750            4.6917564e-05
    190800   372.63395      315.61221     -0.14375168     4.21875e+08    750            4.6917564e-05
    190900   378.37866      315.0673      -0.14339474     4.21875e+08    750            4.6917564e-05
    191000   369.74438      314.53258     -0.14368877     4.21875e+08    750            4.6917564e-05
    191100   369.71811      314.0114      -0.14361468     4.21875e+08    750            4.6917564e-05
    191200   370.53157      313.48122     -0.14350395     4.21875e+08    750            4.6917564e-05
    191300   364.3818       312.96183     -0.14370652     4.21875e+08    750            4.6917564e-05
    191400   366.29463      312.429       -0.14356095     4.21875e+08    750            4.6917564e-05
    191500   379.38781      311.88101     -0.1429094      4.21875e+08    750            4.6917564e-05
    191600   380.59513      311.31854     -0.14278341     4.21875e+08    750            4.6917564e-05
    191700   380.86147      310.7394      -0.14269506     4.21875e+08    750            4.6917564e-05
    191800   374.35462      310.13752     -0.14291282     4.21875e+08    750            4.6917564e-05
    191900   379.03551      309.51178     -0.14262572     4.21875e+08    750            4.6917564e-05
    192000   382.98259      308.86619     -0.14236302     4.21875e+08    750            4.6917564e-05
    192100   384.01955      308.2154      -0.14223603     4.21875e+08    750            4.6917564e-05
    192200   377.40393      307.56148     -0.1424554      4.21875e+08    750            4.6917564e-05
    192300   380.32852      306.88491     -0.1422609      4.21875e+08    750            4.6917564e-05
    192400   380.88302      306.2154      -0.14216847     4.21875e+08    750            4.6917564e-05
    192500   385.04798      305.54753     -0.14191814     4.21875e+08    750            4.6917564e-05
    192600   382.15126      304.87235     -0.14200395     4.21875e+08    750            4.6917564e-05
    192700   382.28812      304.18229     -0.14197088     4.21875e+08    750            4.6917564e-05
    192800   390.91371      303.47389     -0.14156818     4.21875e+08    750            4.6917564e-05
    192900   394.78618      302.7865      -0.14137616     4.21875e+08    750            4.6917564e-05
    193000   395.15128      302.1003      -0.14134773     4.21875e+08    750            4.6917564e-05
    193100   403.52717      301.42524     -0.14098299     4.21875e+08    750            4.6917564e-05
    193200   408.89103      300.75246     -0.1407642      4.21875e+08    750            4.6917564e-05
    193300   401.66199      300.06507     -0.1411192      4.21875e+08    750            4.6917564e-05
    193400   400.44151      299.37528     -0.14119873     4.21875e+08    750            4.6917564e-05
    193500   403.99629      298.68296     -0.14107027     4.21875e+08    750            4.6917564e-05
    193600   403.97962      297.96346     -0.1411022      4.21875e+08    750            4.6917564e-05
    193700   401.63818      297.23989     -0.14122195     4.21875e+08    750            4.6917564e-05
    193800   402.44401      296.5063      -0.14120553     4.21875e+08    750            4.6917564e-05
    193900   404.60159      295.76055     -0.14113447     4.21875e+08    750            4.6917564e-05
    194000   394.42946      295.04933     -0.14162023     4.21875e+08    750            4.6917564e-05
    194100   392.71538      294.3335      -0.14174915     4.21875e+08    750            4.6917564e-05
    194200   385.70701      293.61721     -0.14211411     4.21875e+08    750            4.6917564e-05
    194300   390.08922      292.91589     -0.1419779      4.21875e+08    750            4.6917564e-05
    194400   389.6905       292.20806     -0.14206466     4.21875e+08    750            4.6917564e-05
    194500   396.89959      291.48323     -0.14179906     4.21875e+08    750            4.6917564e-05
    194600   400.01293      290.68933     -0.14172257     4.21875e+08    750            4.6917564e-05
    194700   394.64069      289.95394     -0.14204116     4.21875e+08    750            4.6917564e-05
    194800   389.58073      289.20684     -0.14236046     4.21875e+08    750            4.6917564e-05
    194900   394.29587      288.47004     -0.14222751     4.21875e+08    750            4.6917564e-05
    195000   391.2852       287.73448     -0.14244706     4.21875e+08    750            4.6917564e-05
    195100   386.75438      287.02146     -0.14275427     4.21875e+08    750            4.6917564e-05
    195200   381.31019      286.31717     -0.14310534     4.21875e+08    750            4.6917564e-05
    195300   377.59129      285.62867     -0.14337391     4.21875e+08    750            4.6917564e-05
    195400   375.76271      284.93059     -0.14354006     4.21875e+08    750            4.6917564e-05
    195500   379.49948      284.20577     -0.14346847     4.21875e+08    750            4.6917564e-05
    195600   379.9395       283.46247     -0.14354829     4.21875e+08    750            4.6917564e-05
    195700   379.22651      282.73111     -0.1436788      4.21875e+08    750            4.6917564e-05
    195800   382.29027      282.02777     -0.1436292      4.21875e+08    750            4.6917564e-05
    195900   386.73893      281.33344     -0.14349553     4.21875e+08    750            4.6917564e-05
    196000   380.71958      280.65361     -0.14382583     4.21875e+08    750            4.6917564e-05
    196100   382.68021      279.97687     -0.14381439     4.21875e+08    750            4.6917564e-05
    196200   381.52655      279.30192     -0.14396019     4.21875e+08    750            4.6917564e-05
    196300   382.28802      278.62078     -0.14402511     4.21875e+08    750            4.6917564e-05
    196400   376.25587      277.93275     -0.1443998      4.21875e+08    750            4.6917564e-05
    196500   377.99108      277.24533     -0.1444266      4.21875e+08    750            4.6917564e-05
    196600   371.52463      276.55972     -0.1448275      4.21875e+08    750            4.6917564e-05
    196700   368.67227      275.88526     -0.14506716     4.21875e+08    750            4.6917564e-05
    196800   369.65314      275.22542     -0.14513124     4.21875e+08    750            4.6917564e-05
    196900   370.54775      274.56789     -0.14519869     4.21875e+08    750            4.6917564e-05
    197000   374.40671      273.89707     -0.14515107     4.21875e+08    750            4.6917564e-05
    197100   375.76075      273.23074     -0.14522106     4.21875e+08    750            4.6917564e-05
    197200   370.993        272.58143     -0.14555721     4.21875e+08    750            4.6917564e-05
    197300   369.41576      271.93294     -0.14576811     4.21875e+08    750            4.6917564e-05
    197400   365.05131      271.28744     -0.14609505     4.21875e+08    750            4.6917564e-05
    197500   358.78825      270.63971     -0.14649777     4.21875e+08    750            4.6917564e-05
    197600   360.49392      269.99179     -0.14655936     4.21875e+08    750            4.6917564e-05
    197700   371.61203      269.33924     -0.14620803     4.21875e+08    750            4.6917564e-05
    197800   367.217        268.68357     -0.1465548      4.21875e+08    750            4.6917564e-05
    197900   370.51293      268.02871     -0.14655218     4.21875e+08    750            4.6917564e-05
    198000   370.60206      267.35568     -0.14669568     4.21875e+08    750            4.6917564e-05
    198100   362.07655      266.66827     -0.14722226     4.21875e+08    750            4.6917564e-05
    198200   371.26494      265.98404     -0.14695188     4.21875e+08    750            4.6917564e-05
    198300   370.82601      265.28921     -0.14709937     4.21875e+08    750            4.6917564e-05
    198400   366.82022      264.59607     -0.14741491     4.21875e+08    750            4.6917564e-05
    198500   366.7312       263.90172     -0.14754256     4.21875e+08    750            4.6917564e-05
    198600   372.10224      263.20324     -0.14742109     4.21875e+08    750            4.6917564e-05
    198700   367.00847      262.51418     -0.14775145     4.21875e+08    750            4.6917564e-05
    198800   369.6876       261.84191     -0.14770834     4.21875e+08    750            4.6917564e-05
    198900   371.57726      261.17125     -0.14769264     4.21875e+08    750            4.6917564e-05
    199000   374.39656      260.48561     -0.14764901     4.21875e+08    750            4.6917564e-05
    199100   370.81052      259.80089     -0.14789359     4.21875e+08    750            4.6917564e-05
    199200   371.55086      259.11908     -0.14792558     4.21875e+08    750            4.6917564e-05
    199300   368.63073      258.43926     -0.14811651     4.21875e+08    750            4.6917564e-05
    199400   365.54568      257.7537      -0.14833056     4.21875e+08    750            4.6917564e-05
    199500   364.13228      257.07433     -0.14847087     4.21875e+08    750            4.6917564e-05
    199600   372.00501      256.37483     -0.14819241     4.21875e+08    750            4.6917564e-05
    199700   366.33022      255.665       -0.14852814     4.21875e+08    750            4.6917564e-05
    199800   368.31482      254.93428     -0.14852412     4.21875e+08    750            4.6917564e-05
    199900   365.67038      254.2054      -0.14873078     4.21875e+08    750            4.6917564e-05
    200000   363.62582      253.47901     -0.14891932     4.21875e+08    750            4.6917564e-05
    200100   366.7792       252.74972     -0.14887305     4.21875e+08    750            4.6917564e-05
    200200   366.01775      252.01736     -0.14899601     4.21875e+08    750            4.6917564e-05
    200300   365.02956      251.29571     -0.14911281     4.21875e+08    750            4.6917564e-05
    200400   359.00213      250.59436     -0.14943316     4.21875e+08    750            4.6917564e-05
    200500   358.13592      249.90325     -0.14951346     4.21875e+08    750            4.6917564e-05
    200600   355.13504      249.20456     -0.14969454     4.21875e+08    750            4.6917564e-05
    200700   356.94981      248.49082     -0.14965755     4.21875e+08    750            4.6917564e-05
    200800   356.09519      247.76623     -0.14974842     4.21875e+08    750            4.6917564e-05
    200900   352.05374      247.04843     -0.14998143     4.21875e+08    750            4.6917564e-05
    201000   355.92266      246.31736     -0.1498607      4.21875e+08    750            4.6917564e-05
    201100   362.12386      245.58889     -0.14962637     4.21875e+08    750            4.6917564e-05
    201200   358.88111      244.86182     -0.14980298     4.21875e+08    750            4.6917564e-05
    201300   360.86325      244.14644     -0.14973593     4.21875e+08    750            4.6917564e-05
    201400   364.02924      243.44933     -0.14961259     4.21875e+08    750            4.6917564e-05
    201500   364.65192      242.74411     -0.14959663     4.21875e+08    750            4.6917564e-05
    201600   366.05295      242.05391     -0.14954923     4.21875e+08    750            4.6917564e-05
    201700   364.07798      241.36948     -0.1496518      4.21875e+08    750            4.6917564e-05
    201800   365.25281      240.70218     -0.14960373     4.21875e+08    750            4.6917564e-05
    201900   368.1157       240.0472      -0.14947427     4.21875e+08    750            4.6917564e-05
    202000   373.42054      239.39103     -0.14924302     4.21875e+08    750            4.6917564e-05
    202100   368.2601       238.73993     -0.14947339     4.21875e+08    750            4.6917564e-05
    202200   375.40735      238.0806      -0.14916349     4.21875e+08    750            4.6917564e-05
    202300   391.02503      237.41836     -0.14847259     4.21875e+08    750            4.6917564e-05
    202400   386.17242      236.74457     -0.14868815     4.21875e+08    750            4.6917564e-05
    202500   387.54743      236.05949     -0.1486352      4.21875e+08    750            4.6917564e-05
    202600   387.74546      235.35885     -0.14862483     4.21875e+08    750            4.6917564e-05
    202700   383.72827      234.65998     -0.14877797     4.21875e+08    750            4.6917564e-05
    202800   382.63533      233.95216     -0.14877806     4.21875e+08    750            4.6917564e-05
    202900   379.8087       233.24103     -0.14885048     4.21875e+08    750            4.6917564e-05
    203000   374.50435      232.53471     -0.14904332     4.21875e+08    750            4.6917564e-05
    203100   372.07581      231.84521     -0.14911387     4.21875e+08    750            4.6917564e-05
    203200   364.16271      231.17368     -0.14942488     4.21875e+08    750            4.6917564e-05
    203300   358.14862      230.51686     -0.14964689     4.21875e+08    750            4.6917564e-05
    203400   365.70378      229.8688      -0.1492576      4.21875e+08    750            4.6917564e-05
    203500   368.10366      229.22139     -0.14908361     4.21875e+08    750            4.6917564e-05
    203600   367.05528      228.56741     -0.14905894     4.21875e+08    750            4.6917564e-05
    203700   364.70482      227.91767     -0.14909516     4.21875e+08    750            4.6917564e-05
    203800   357.83467      227.28576     -0.14931741     4.21875e+08    750            4.6917564e-05
    203900   365.44041      226.65973     -0.14888708     4.21875e+08    750            4.6917564e-05
    204000   367.61025      226.04496     -0.14869114     4.21875e+08    750            4.6917564e-05
    204100   371.87275      225.43405     -0.1483884      4.21875e+08    750            4.6917564e-05
    204200   365.89327      224.83622     -0.1485311      4.21875e+08    750            4.6917564e-05
    204300   366.47777      224.25686     -0.1483615      4.21875e+08    750            4.6917564e-05
    204400   366.30826      223.674       -0.14820425     4.21875e+08    750            4.6917564e-05
    204500   362.59551      223.09188     -0.14820009     4.21875e+08    750            4.6917564e-05
    204600   364.06694      222.51565     -0.14797015     4.21875e+08    750            4.6917564e-05
    204700   369.82809      221.93829     -0.14753879     4.21875e+08    750            4.6917564e-05
    204800   371.78522      221.36498     -0.14727676     4.21875e+08    750            4.6917564e-05
    204900   369.13487      220.79937     -0.14722263     4.21875e+08    750            4.6917564e-05
    205000   369.82152      220.24552     -0.14702317     4.21875e+08    750            4.6917564e-05
    205100   369.34548      219.69515     -0.14687255     4.21875e+08    750            4.6917564e-05
    205200   373.72965      219.13715     -0.14651034     4.21875e+08    750            4.6917564e-05
    205300   369.70469      218.58941     -0.14653609     4.21875e+08    750            4.6917564e-05
    205400   363.50195      218.04166     -0.14666169     4.21875e+08    750            4.6917564e-05
    205500   366.52328      217.49828     -0.14637423     4.21875e+08    750            4.6917564e-05
    205600   363.34756      216.94341     -0.14637918     4.21875e+08    750            4.6917564e-05
    205700   365.5658       216.38441     -0.14615201     4.21875e+08    750            4.6917564e-05
    205800   372.70287      215.81341     -0.14571165     4.21875e+08    750            4.6917564e-05
    205848   378.5614       215.53327     -0.14538659     4.21875e+08    750            4.6917564e-05
Loop time of 5.97024 on 1 procs for 100000 steps with 140 atoms

Performance: 7.236 ns/day, 3.317 hours/ns, 16749.746 timesteps/s, 2.345 Matom-step/s
99.4% CPU use with 1 MPI tasks x 1 OpenMP threads

MPI task timing breakdown:
Section |  min time  |  avg time  |  max time  |%varavg| %total
---------------------------------------------------------------
Pair    | 4.9873     | 4.9873     | 4.9873     |   0.0 | 83.54
Bond    | 0.13804    | 0.13804    | 0.13804    |   0.0 |  2.31
Neigh   | 0.00053627 | 0.00053627 | 0.00053627 |   0.0 |  0.01
Comm    | 0.0080177  | 0.0080177  | 0.0080177  |   0.0 |  0.13
Output  | 0.16795    | 0.16795    | 0.16795    |   0.0 |  2.81
Modify  | 0.63468    | 0.63468    | 0.63468    |   0.0 | 10.63
Other   |            | 0.0337     |            |       |  0.56

Nlocal:            140 ave         140 max         140 min
Histogram: 1 0 0 0 0 0 0 0 0 0
Nghost:              0 ave           0 max           0 min
Histogram: 1 0 0 0 0 0 0 0 0 0
Neighs:           3287 ave        3287 max        3287 min
Histogram: 1 0 0 0 0 0 0 0 0 0

Total # of neighbors = 3287
Ave neighs/atom = 23.478571
Ave special neighs/atom = 5.9142857
Neighbor list builds = 3
Dangerous builds = 0


# write_data data.polymer
Total wall time: 0:00:12
