LAMMPS data file via write_data, version 2 Aug 2023, timestep = 110000, units = real

153 atoms
153 atom types
152 bonds
152 bond types
151 angles
151 angle types
150 dihedrals
150 dihedral types

0 750 xlo xhi
0 750 ylo yhi
0 750 zlo zhi

Masses

1 53.06263999999999
2 83.08864
3 110.15704
4 53.06263999999999
5 81.11573999999999
6 53.06263999999999
7 81.11573999999999
8 95.14233999999999
9 110.15704
10 39.03603999999999
11 97.07213999999999
12 39.03603999999999
13 79.09994
14 81.11573999999999
15 110.11394
16 39.03603999999999
17 95.14233999999999
18 95.14233999999999
19 96.08733999999998
20 129.15854
21 111.09874
22 110.11394
23 110.15704
24 111.09874
25 69.06204
26 96.08733999999998
27 39.03603999999999
28 79.09994
29 81.11573999999999
30 110.15704
31 81.11573999999999
32 168.19464
33 39.03603999999999
34 69.06204
35 95.14233999999999
36 110.15704
37 39.03603999999999
38 95.14233999999999
39 83.08864
40 111.09874
41 39.03603999999999
42 95.14233999999999
43 129.15854
44 39.03603999999999
45 129.15854
46 119.12404
47 81.11573999999999
48 119.12404
49 111.09874
50 111.09874
51 111.09874
52 97.07213999999999
53 96.08733999999998
54 83.08864
55 53.06263999999999
56 39.03603999999999
57 85.12763999999999
58 83.08864
59 69.06204
60 53.06263999999999
61 39.03603999999999
62 79.09994
63 119.12404
64 129.15854
65 96.08733999999998
66 79.09994
67 95.14233999999999
68 69.06204
69 138.17044
70 110.15704
71 119.12404
72 39.03603999999999
73 39.03603999999999
74 79.09994
75 110.15704
76 97.07213999999999
77 111.09874
78 111.09874
79 138.17044
80 119.12404
81 81.11573999999999
82 39.03603999999999
83 97.07213999999999
84 95.14233999999999
85 39.03603999999999
86 96.08733999999998
87 81.11573999999999
88 83.08864
89 53.06263999999999
90 97.07213999999999
91 110.15704
92 97.07213999999999
93 39.03603999999999
94 81.11573999999999
95 53.06263999999999
96 97.07213999999999
97 81.11573999999999
98 69.06204
99 95.14233999999999
100 111.09874
101 97.07213999999999
102 69.06204
103 81.11573999999999
104 95.14233999999999
105 69.06204
106 95.14233999999999
107 69.06204
108 39.03603999999999
109 97.07213999999999
110 119.12404
111 53.06263999999999
112 95.14233999999999
113 95.14233999999999
114 39.03603999999999
115 138.17044
116 83.08864
117 95.14233999999999
118 81.11573999999999
119 81.11573999999999
120 119.12404
121 111.09874
122 110.15704
123 53.06263999999999
124 97.07213999999999
125 97.07213999999999
126 95.14233999999999
127 39.03603999999999
128 110.15704
129 39.03603999999999
130 39.03603999999999
131 96.08733999999998
132 111.09874
133 111.09874
134 69.06204
135 83.08864
136 110.15704
137 83.08864
138 39.03603999999999
139 96.08733999999998
140 53.06263999999999
141 39.03603999999999
142 69.06204
143 138.17044
144 95.14233999999999
145 53.06263999999999
146 85.12763999999999
147 39.03603999999999
148 81.11573999999999
149 95.14233999999999
150 39.03603999999999
151 95.14233999999999
152 53.06263999999999
153 110.11394

Pair Coeffs # lj/cut/coul/debye

1 2.5 3.8
2 2.5 3.8
3 2.5 3.8
4 2.5 3.8
5 2.5 3.8
6 2.5 3.8
7 2.5 3.8
8 2.5 3.8
9 2.5 3.8
10 2.5 3.8
11 2.5 3.8
12 2.5 3.8
13 2.5 3.8
14 2.5 3.8
15 2.5 3.8
16 2.5 3.8
17 2.5 3.8
18 2.5 3.8
19 2.5 3.8
20 2.5 3.8
21 2.5 3.8
22 2.5 3.8
23 2.5 3.8
24 2.5 3.8
25 2.5 3.8
26 2.5 3.8
27 2.5 3.8
28 2.5 3.8
29 2.5 3.8
30 2.5 3.8
31 2.5 3.8
32 2.5 3.8
33 2.5 3.8
34 2.5 3.8
35 2.5 3.8
36 2.5 3.8
37 2.5 3.8
38 2.5 3.8
39 2.5 3.8
40 2.5 3.8
41 2.5 3.8
42 2.5 3.8
43 2.5 3.8
44 2.5 3.8
45 2.5 3.8
46 2.5 3.8
47 2.5 3.8
48 2.5 3.8
49 2.5 3.8
50 2.5 3.8
51 2.5 3.8
52 2.5 3.8
53 2.5 3.8
54 2.5 3.8
55 2.5 3.8
56 2.5 3.8
57 2.5 3.8
58 2.5 3.8
59 2.5 3.8
60 2.5 3.8
61 2.5 3.8
62 2.5 3.8
63 2.5 3.8
64 2.5 3.8
65 2.5 3.8
66 2.5 3.8
67 2.5 3.8
68 2.5 3.8
69 2.5 3.8
70 2.5 3.8
71 2.5 3.8
72 2.5 3.8
73 2.5 3.8
74 2.5 3.8
75 2.5 3.8
76 2.5 3.8
77 2.5 3.8
78 2.5 3.8
79 2.5 3.8
80 2.5 3.8
81 2.5 3.8
82 2.5 3.8
83 2.5 3.8
84 2.5 3.8
85 2.5 3.8
86 2.5 3.8
87 2.5 3.8
88 2.5 3.8
89 2.5 3.8
90 2.5 3.8
91 2.5 3.8
92 2.5 3.8
93 2.5 3.8
94 2.5 3.8
95 2.5 3.8
96 2.5 3.8
97 2.5 3.8
98 2.5 3.8
99 2.5 3.8
100 2.5 3.8
101 2.5 3.8
102 2.5 3.8
103 2.5 3.8
104 2.5 3.8
105 2.5 3.8
106 2.5 3.8
107 2.5 3.8
108 2.5 3.8
109 2.5 3.8
110 2.5 3.8
111 2.5 3.8
112 2.5 3.8
113 2.5 3.8
114 2.5 3.8
115 2.5 3.8
116 2.5 3.8
117 2.5 3.8
118 2.5 3.8
119 2.5 3.8
120 2.5 3.8
121 2.5 3.8
122 2.5 3.8
123 2.5 3.8
124 2.5 3.8
125 2.5 3.8
126 2.5 3.8
127 2.5 3.8
128 2.5 3.8
129 2.5 3.8
130 2.5 3.8
131 2.5 3.8
132 2.5 3.8
133 2.5 3.8
134 2.5 3.8
135 2.5 3.8
136 2.5 3.8
137 2.5 3.8
138 2.5 3.8
139 2.5 3.8
140 2.5 3.8
141 2.5 3.8
142 2.5 3.8
143 2.5 3.8
144 2.5 3.8
145 2.5 3.8
146 2.5 3.8
147 2.5 3.8
148 2.5 3.8
149 2.5 3.8
150 2.5 3.8
151 2.5 3.8
152 2.5 3.8
153 2.5 3.8

Bond Coeffs # harmonic

1 0.0656825 4.69525
2 0.00834967 5.4204
3 0.0680506 5.78515
4 0.342776 4.78356
5 0.245324 4.34267
6 0.198248 4.6898
7 0.0979559 5.69683
8 0.00974801 6.90158
9 0.0063555 5.06079
10 0.300176 4.31178
11 0.0611296 3.95148
12 0.79177 4.0204
13 0.115459 5.37228
14 0.0385086 5.39861
15 0.0671827 4.68406
16 0.192448 4.49079
17 0.297865 5.90119
18 0.0716143 5.23535
19 0.0467221 5.36366
20 0.170105 7.04148
21 0.099441 5.88465
22 0.0372457 6.48515
23 0.0105143 6.50762
24 0.0955896 4.42168
25 0.0733605 4.39475
26 0.0860933 4.7396
27 0.858434 3.9295
28 0.214384 5.73376
29 0.030309 6.49327
30 0.00742111 5.88356
31 0.0970864 5.7097
32 0.0681373 5.2801
33 0.299712 3.93238
34 0.199433 5.31267
35 0.0729301 6.91475
36 0.0298871 4.98941
37 0.0206258 4.89327
38 0.0211522 5.11614
39 0.0428518 4.95921
40 0.0808391 4.33525
41 0.127486 4.79634
42 0.164825 5.75871
43 0.239221 5.19287
44 0.199441 5.75525
45 0.101002 5.58158
46 0.213597 6.14812
47 0.112609 5.06782
48 0.0594846 6.21228
49 0.0244088 4.61455
50 0.113004 5.92267
51 0.135961 5.07594
52 0.026811 4.73743
53 0.0236647 5.50119
54 0.0652256 4.23802
55 0.11348 3.91832
56 0.234365 4.01515
57 0.180466 4.74505
58 0.136243 4.23881
59 0.39858 4.62762
60 0.386699 3.91327
61 0.930645 3.98753
62 0.142458 6.39644
63 0.0200122 6.57337
64 0.0334704 5.49762
65 0.190074 4.83881
66 0.047318 4.68663
67 0.258898 5.73148
68 0.0349272 6.01257
69 0.0142168 7.94168
70 0.0123369 7.13287
71 0.090785 4.4596
72 0.683339 3.28178
73 1.13061 4.04455
74 0.015615 5.11871
75 0.0502733 6.66346
76 0.0268945 4.95287
77 0.0227232 5.47673
78 0.0376858 5.90614
79 0.064526 6.93089
80 0.0583177 4.82109
81 0.128086 4.2001
82 0.501051 4.02119
83 0.031947 5.57247
84 0.073605 5.16554
85 0.163264 4.32683
86 0.170554 4.96911
87 0.0527538 5.2501
88 0.100814 4.51218
89 0.208354 4.3104
90 0.0085753 6.23545
91 0.00742591 5.42525
92 0.178734 4.47564
93 0.0996724 4.1203
94 0.261294 4.80327
95 0.179309 4.29654
96 0.17631 5.02762
97 0.150442 4.80406
98 0.0875107 5.22109
99 0.0370247 5.44129
100 0.118794 5.25762
101 0.186798 4.30673
102 0.104683 5.18277
103 0.105894 4.47158
104 0.0889955 5.16723
105 0.22585 5.77495
106 0.0751246 5.47604
107 0.134413 3.98129
108 0.451974 4.34881
109 0.0101665 5.52346
110 0.0544359 5.73713
111 0.125732 4.97713
112 0.028232 5.55455
113 0.316936 4.90851
114 0.0184063 4.85465
115 0.0489508 6.94624
116 0.298394 5.81792
117 0.15516 5.36238
118 0.399777 5.29376
119 0.124646 5.19535
120 0.115844 6.15465
121 0.0213336 4.54762
122 0.0362898 5.6403
123 0.370432 4.72317
124 0.301439 4.84178
125 0.197575 5.02059
126 0.662543 5.5001
127 0.113152 5.1999
128 0.0465339 4.9602
129 0.633995 3.63158
130 0.494004 4.72277
131 0.0474522 5.06287
132 0.0171292 5.27614
133 0.137229 5.59614
134 0.177907 4.52545
135 0.0318646 6.51604
136 0.0360983 4.85178
137 0.240935 4.49356
138 0.228501 4.57713
139 0.212652 5.12802
140 0.546624 3.8702
141 0.624951 4.17168
142 0.0598334 6.08554
143 0.0298165 7.72891
144 0.0539467 5.1604
145 0.354285 4.17198
146 0.442498 3.96465
147 0.424782 4.69574
148 0.168222 5.42574
149 0.257293 4.83257
150 0.203181 4.90158
151 0.218443 5.14445
152 0.02334 5.0699

Angle Coeffs # harmonic

1 1.63123e-05 88.2658
2 6.07373e-05 86.603
3 0.000136633 101.084
4 0.000164416 106.528
5 7.56601e-05 93.2769
6 0.000135808 65.6909
7 3.34003e-05 65.4418
8 0.000105119 82.1748
9 2.11382e-05 133.423
10 0.000130526 67.0498
11 5.17951e-05 166.22
12 0.000174943 67.0901
13 4.5819e-05 85.0865
14 8.83237e-05 94.6229
15 4.60445e-05 129.272
16 0.000117415 82.5879
17 0.000187349 73.8393
18 0.00022483 74.8551
19 0.000129389 77.8325
20 0.000221263 85.2865
21 9.23077e-05 51.9848
22 0.000223943 54.893
23 5.62727e-05 122.668
24 3.10093e-05 72.4734
25 1.39878e-05 85.9852
26 4.55647e-05 166.45
27 8.21987e-05 96.5285
28 4.59456e-05 80.8339
29 0.000176627 57.0894
30 5.60325e-05 61.2822
31 0.000163345 87.6358
32 7.68907e-05 152.393
33 8.75377e-05 115.13
34 0.000132609 87.3303
35 0.000302415 64.4126
36 0.000155795 122.74
37 7.76639e-05 91.5845
38 7.22722e-05 110.137
39 9.29834e-05 94.8539
40 8.70558e-05 165.444
41 0.00020408 62.3093
42 0.000289993 88.8104
43 0.000149177 101.748
44 0.000295438 55.552
45 0.000239189 87.6385
46 0.00017163 70.9181
47 9.55188e-05 94.9783
48 0.000126436 122.532
49 4.91647e-05 113.278
50 0.000113748 87.907
51 2.02652e-05 84.1379
52 8.56043e-05 67.5439
53 8.29749e-05 93.5823
54 7.05098e-06 131.73
55 2.72633e-05 120.926
56 3.84553e-05 118.36
57 0.000240008 75.4115
58 7.1386e-05 107.81
59 8.01769e-05 90.7814
60 3.64824e-05 135.094
61 0.000165626 107.552
62 3.73856e-05 73.6914
63 5.44078e-05 66.8885
64 0.000133231 60.3283
65 4.03452e-05 91.0101
66 0.000100947 81.5821
67 0.000207393 47.4286
68 8.49607e-05 81.2099
69 0.000244083 88.0186
70 6.91354e-05 69.5148
71 7.38011e-05 119.524
72 5.05922e-05 151.644
73 2.34841e-05 99.629
74 0.000197753 70.2563
75 4.60348e-05 132.728
76 0.000108398 76.2728
77 6.36545e-05 95.3754
78 0.000263739 76.2551
79 6.16802e-05 89.9343
80 0.000160501 66.6384
81 8.01228e-05 105.768
82 0.000120861 64.1991
83 0.000154634 67.4211
84 7.10821e-05 130.012
85 6.2461e-05 101.951
86 0.000111868 91.1312
87 8.19599e-05 95.5166
88 6.09599e-05 104.269
89 2.36879e-05 120.548
90 2.82587e-05 56.064
91 2.27598e-05 103.341
92 0.000106337 76.2238
93 5.18483e-05 94.6945
94 4.5681e-05 116.662
95 6.02147e-05 107.074
96 0.000153764 90.5867
97 0.000102073 81.5916
98 7.21111e-05 89.8569
99 8.21608e-05 78.0386
100 3.59504e-05 118.968
101 3.85801e-05 66.3988
102 4.36786e-05 98.8264
103 7.3338e-05 115.679
104 3.05333e-05 69.3844
105 0.000131381 52.6677
106 3.59849e-05 116.253
107 3.04275e-05 122.587
108 0.000122372 82.6445
109 0.000153069 67.4746
110 4.30293e-05 108.218
111 0.000118113 65.9205
112 8.89234e-05 88.4746
113 9.94877e-05 89.8808
114 0.000188495 74.7961
115 0.000128169 103.291
116 0.000377337 66.9141
117 0.000120885 89.0583
118 0.000247301 62.8863
119 0.000108949 96.1458
120 6.9967e-05 94.514
121 0.000136608 107.788
122 5.70207e-05 116.139
123 9.96363e-05 96.9972
124 0.000383675 59.9331
125 0.000336246 52.3446
126 0.000243442 73.8061
127 0.00033258 63.3358
128 0.000119193 127.086
129 8.30532e-05 93.799
130 5.0515e-05 94.3797
131 0.000180203 72.2846
132 0.000111146 81.1097
133 0.000176176 90.6299
134 0.000148006 87.3305
135 0.000176728 86.4753
136 9.95479e-05 117.447
137 7.15812e-05 86.6997
138 0.000268677 66.6835
139 0.000153131 82.0076
140 0.000122612 131.054
141 9.11577e-05 102.618
142 0.000200391 50.406
143 0.000235885 69.1224
144 0.00015875 132.931
145 0.000154788 124.994
146 5.89339e-05 143.573
147 0.000112608 87.3545
148 0.000135616 78.5068
149 3.0941e-05 134.529
150 0.000161876 78.9006
151 1.33587e-05 105.066

Dihedral Coeffs # quadratic

1 0.00108327 94.0595 
2 0.0186276 174.106 
3 0.00779362 165.303 
4 0.0107877 168.054 
5 0.0109202 156.417 
6 0.00741722 161.554 
7 0.00618197 168.885 
8 0.00310137 157.944 
9 0.00108413 90.6513 
10 0.000245219 72.7783 
11 0.000205145 88.8641 
12 0.00214089 123.97 
13 0.0129654 173.365 
14 0.0123 173.653 
15 0.0126165 173.192 
16 0.0127964 174.077 
17 0.0111825 146.06 
18 0.00950509 155.262 
19 0.0193196 174.422 
20 0.00671209 167.406 
21 0.00178881 162.387 
22 0.00200082 24.6775 
23 0.000606445 140.937 
24 0.0015887 59.437 
25 0.000131281 105.283 
26 0.000211726 106.857 
27 0.00213385 139.294 
28 0.00506678 149.821 
29 0.0136644 135.814 
30 0.00915348 140.026 
31 0.00192306 154.944 
32 0.00258346 145.969 
33 0.0190879 173.505 
34 0.00744504 161.282 
35 0.00396785 17.0483 
36 0.00102546 145.138 
37 0.00456103 104.819 
38 0.00555549 58.4182 
39 0.000253881 92.8091 
40 0.000276449 100.587 
41 0.0248291 175.963 
42 0.0111068 102.934 
43 0.0149536 161.572 
44 0.0193512 167.673 
45 0.00851694 120.737 
46 0.0198731 156.428 
47 0.00094002 75.7242 
48 0.000685083 41.8833 
49 0.00180602 49.7855 
50 0.00676178 170.393 
51 0.00480948 165.839 
52 0.00108761 91.6964 
53 0.000895901 23.7413 
54 0.000263908 53.8208 
55 0.00126285 68.9447 
56 0.00199516 107.194 
57 0.00187796 39.7264 
58 0.0095973 172.46 
59 0.00347423 160.421 
60 0.00142047 107.093 
61 0.00330017 90.4644 
62 0.00218279 125.421 
63 0.00247237 159.842 
64 0.00185118 160.876 
65 0.00239565 33.0135 
66 0.000637353 127.571 
67 0.00157332 163.751 
68 0.00341237 83.4785 
69 0.00431651 87.7172 
70 0.00217667 128.905 
71 0.00121725 157.464 
72 0.00101384 25.2165 
73 0.00264986 37.3519 
74 0.00155532 95.3608 
75 0.00196206 131.172 
76 0.00842657 54.4412 
77 0.00279269 153.611 
78 0.00475629 154.593 
79 0.00410104 109.161 
80 0.00333622 41.5347 
81 0.000921692 113.11 
82 0.00237254 129.385 
83 0.00437198 172.009 
84 0.00264647 20.2316 
85 0.00659322 165.665 
86 0.00448143 122.563 
87 0.00347688 145.917 
88 0.00150898 121.858 
89 0.000637657 119.172 
90 0.000724633 67.9988 
91 0.000480946 137.606 
92 0.000460909 117.648 
93 0.00375747 161.788 
94 0.00271974 154.22 
95 0.00573222 164.236 
96 0.00541574 156.702 
97 0.00573597 156.783 
98 0.00641041 169.939 
99 0.00118206 162.244 
100 0.00127253 144.722 
101 0.000818669 112.836 
102 0.00156176 47.019 
103 0.00303846 162.6 
104 0.0043597 130.802 
105 0.00118296 117.72 
106 0.00112673 89.5511 
107 0.00306534 13.0547 
108 0.00271001 52.0055 
109 0.00224689 130.202 
110 0.00722195 168.52 
111 0.00222466 109.831 
112 0.00386852 35.0959 
113 0.0129918 124.332 
114 0.00911602 95.7643 
115 0.0109781 139.182 
116 0.0153105 161.639 
117 0.0159928 140.821 
118 0.0132691 144.1 
119 0.00557599 131.476 
120 0.00234883 53.4176 
121 0.00183009 93.4121 
122 0.00463225 85.8383 
123 0.00847154 150.543 
124 0.00583711 140.846 
125 0.0182805 59.7255 
126 0.00518398 165.126 
127 0.0021739 22.7988 
128 0.00132988 107.119 
129 0.00598709 170.563 
130 0.00487384 135.194 
131 0.01739 37.417 
132 0.00752349 43.1017 
133 0.00749474 28.065 
134 0.00542925 36.0793 
135 0.0065703 9.48408 
136 0.00379204 90.0532 
137 0.0028774 97.2109 
138 0.00387975 146.759 
139 0.00381985 167.216 
140 0.00194584 75.6396 
141 0.010239 116.466 
142 0.0129524 170.987 
143 0.00979496 7.70528 
144 0.00836989 153.881 
145 0.00882428 171.381 
146 0.0065018 143.188 
147 0.0131213 132.856 
148 0.00143453 146.018 
149 0.00228062 107.039 
150 0.00219014 126.197 

Atoms # full

1 1 1 0 203.26403443202895 199.53826932685098 196.11243235685552 0 0 0
2 1 2 0 203.83579975814018 199.436940950507 204.81004094595517 0 0 0
3 1 3 1 207.21422778491714 204.41147583586317 205.44649081553126 0 0 0
5 1 5 0 204.4247942237098 205.95006403389772 208.66678289535986 0 0 0
4 1 4 0 213.1392367313128 200.96678499153342 204.23214567982072 0 0 0
6 1 6 0 213.35839006891146 212.4524596287465 212.66685880044616 0 0 0
7 1 7 0 212.69366949103784 220.43463489391868 211.1086644996986 0 0 0
8 1 8 0 211.859875939593 220.89927448327356 216.46789584170122 0 0 0
9 1 9 1 217.7770133761924 218.78585717863575 217.85725821793216 0 0 0
10 1 10 0 215.72492465262394 222.69660854041783 219.63501763592396 0 0 0
11 1 11 -1 220.64634052597555 223.42450302684767 229.53794243448584 0 0 0
12 1 12 0 235.15388732540788 221.8690419227954 227.3121402459215 0 0 0
13 1 13 0 230.1731627392395 234.55173325690933 230.9821441583712 0 0 0
14 1 14 0 228.1096186155543 233.8489937621937 232.36617162667264 0 0 0
15 1 15 0 235.06260882273014 235.13625891164008 231.74955514888464 0 0 0
16 1 16 0 233.4384107674959 237.597926758456 235.8636521968684 0 0 0
17 1 17 0 236.65791522258215 236.63875418628388 243.11649929543717 0 0 0
18 1 18 0 244.54023048232406 243.05606672309972 241.20239528343535 0 0 0
21 1 21 -1 247.8478022088379 254.88256931011253 248.7874615551886 0 0 0
19 1 19 0 246.8722016471327 243.35103759214485 252.60519072953767 0 0 0
20 1 20 0 251.12343518941563 251.14069244557385 252.9191789437609 0 0 0
22 1 22 0 259.55124017251165 253.03344274433414 252.17954543579663 0 0 0
23 1 23 1 253.83650592215227 260.59753048173485 255.79679724828682 0 0 0
24 1 24 -1 263.32173485641533 260.7676435430282 260.4747459107858 0 0 0
25 1 25 0 268.208955906468 269.28285913968836 259.0163834294676 0 0 0
26 1 26 0 269.08838329554334 268.53892745280217 270.9414629801444 0 0 0
28 1 28 0 270.27720997059436 272.21985952524 274.9247727504016 0 0 0
27 1 27 0 275.83283342529546 277.3794953500719 268.0776190339371 0 0 0
29 1 29 0 280.950289923207 272.65719467757447 278.0742181470248 0 0 0
30 1 30 1 282.05630759815676 281.07969025025926 279.84811795131225 0 0 0
31 1 31 0 279.66591207833045 281.4194517971321 280.19170573918774 0 0 0
32 1 32 0 288.2325069563682 282.64223601133693 286.92754567362846 0 0 0
34 1 34 0 283.7483177092466 285.2546642263588 288.01001939403784 0 0 0
33 1 33 0 288.9989015458498 278.3286159532576 281.6195845710271 0 0 0
35 1 35 0 288.35840234750646 290.06781513006786 296.01229208479157 0 0 0
36 1 36 1 291.5806336507197 298.00464362785686 298.3568032706535 0 0 0
37 1 37 0 295.9320856035183 291.6544204229176 299.3984670950208 0 0 0
38 1 38 0 298.7945837995122 301.98319315522485 296.26096032815235 0 0 0
40 1 40 -1 307.9089541105776 307.0812978129801 302.5200373867602 0 0 0
39 1 39 0 300.7737014418868 297.8641468242418 303.04548782185907 0 0 0
41 1 41 0 312.6570438082593 309.35025106548136 304.31069977813655 0 0 0
42 1 42 0 312.22922895584077 308.9292484609673 313.24365877700745 0 0 0
44 1 44 0 319.4170324106636 325.3879251483994 315.7697530081837 0 0 0
43 1 43 0 316.3781025198257 318.2637391125564 319.63862245539286 0 0 0
45 1 45 0 317.4553665278484 319.01869326816933 322.2744497105119 0 0 0
46 1 46 0 320.07931884692795 327.15173979153576 319.8643208351421 0 0 0
47 1 47 0 324.86493440820993 325.0800266090123 324.9592889545826 0 0 0
49 1 49 -1 335.25933553122513 327.2866656950122 336.27029769338486 0 0 0
48 1 48 0 328.0103015598429 333.3296424683056 333.2652190895979 0 0 0
50 1 50 -1 333.4996531508133 330.63111140094026 337.6088156435297 0 0 0
52 1 52 -1 342.5844516249086 338.0668560777826 337.287790832275 0 0 0
51 1 51 -1 335.82097536542346 342.7084235093212 336.4173919402378 0 0 0
53 1 53 0 344.12310105530906 348.0861600506931 338.285185947256 0 0 0
54 1 54 0 345.14356808750034 351.77452979232254 351.1567007670283 0 0 0
55 1 55 0 354.5094536775238 351.44733731969717 344.9065943118621 0 0 0
57 1 57 0 350.31520548902046 350.26278388289836 351.8824083550162 0 0 0
56 1 56 0 360.0441386943941 351.3634151654926 352.14912807235874 0 0 0
58 1 58 0 362.2038998569995 361.75845398575234 353.6639852691144 0 0 0
59 1 59 0 365.1500132203581 361.20087534281845 360.727467317808 0 0 0
60 1 60 0 368.7971024023314 361.2718350860144 361.6670877072465 0 0 0
61 1 61 0 371.4850563655958 361.6468382620013 363.73476026264524 0 0 0
62 1 62 0 370.2626449181832 367.67822518881405 374.69241577843445 0 0 0
63 1 63 0 377.3369974422283 368.25174656079906 373.9140342289301 0 0 0
64 1 64 0 379.71550604822363 374.3651380383578 375.6132994017698 0 0 0
65 1 65 0 379.8018121407014 381.364409677283 374.02966924368525 0 0 0
66 1 66 0 381.76539717413306 378.6047639900493 375.5314677602465 0 0 0
67 1 67 0 379.8921247168181 383.2971342434061 380.71160122387425 0 0 0
68 1 68 0 391.4394056066979 390.90912483709974 389.3204355202429 0 0 0
69 1 69 1 389.7648582668916 391.7639776246358 394.05916054022606 0 0 0
70 1 70 1 394.1729390569229 388.08660282789714 391.7830988425167 0 0 0
72 1 72 0 405.62796029948333 391.7846132358558 393.61297270825344 0 0 0
71 1 71 0 391.63623412195733 398.564615187678 392.75147185453864 0 0 0
73 1 73 0 397.073639237994 402.33307989697164 397.3095157581606 0 0 0
74 1 74 0 402.9556509157317 405.4335771862899 403.456232216261 0 0 0
75 1 75 1 410.31953724196154 406.0987502078083 403.18158690039337 0 0 0
76 1 76 -1 415.27065810953513 413.0203664517744 405.9840809679268 0 0 0
77 1 77 -1 409.4271375088674 415.7394167637835 408.89673561490076 0 0 0
78 1 78 -1 412.81301595969575 419.77973278748067 415.48225845533705 0 0 0
79 1 79 1 419.1698346543199 414.5844007363923 423.08643250991 0 0 0
80 1 80 0 416.496839096871 420.0388355348631 423.1889437307033 0 0 0
82 1 82 0 426.72560037506247 419.41114609572395 421.56049533128896 0 0 0
81 1 81 0 423.17947339588477 429.5528507992907 421.7592889214391 0 0 0
83 1 83 -1 433.51275834967106 433.1545410044104 433.60216051553095 0 0 0
84 1 84 0 432.3908693098554 428.926201468791 432.4778824923644 0 0 0
85 1 85 0 431.7249512194694 427.9164218257861 430.26078045547195 0 0 0
86 1 86 0 436.40513570056794 443.52505688118055 437.65545768833596 0 0 0
87 1 87 0 444.30691129332797 436.9214446327057 445.04750419668363 0 0 0
89 1 89 0 441.54657904736246 454.0740221083499 445.45767519924414 0 0 0
90 1 90 -1 455.74780892168286 454.39076849637354 445.4965198155731 0 0 0
88 1 88 0 449.1465344337856 441.8889194740921 450.1619089924393 0 0 0
91 1 91 1 458.1792280118763 458.07166506578744 451.62008496673644 0 0 0
92 1 92 -1 460.22698494133704 458.2599689273174 457.2986089086582 0 0 0
93 1 93 0 464.2685038515221 456.12064706918784 462.8250255405213 0 0 0
94 1 94 0 468.1228128145915 463.36098900271116 464.72839392679697 0 0 0
95 1 95 0 465.3435158559072 461.70442621358114 464.1433199399621 0 0 0
96 1 96 -1 468.8651674958445 464.320757663723 463.3650567756892 0 0 0
97 1 97 0 466.87985614838385 465.7243900515715 469.78976339033943 0 0 0
98 1 98 0 476.4891482951433 470.73077282287926 477.18615951122837 0 0 0
99 1 99 0 482.94000489254876 481.5308487703102 476.40061811869003 0 0 0
100 1 100 -1 485.0398932945969 484.71014872705473 483.4555937861518 0 0 0
101 1 101 -1 485.4741663251548 478.78080009894535 481.4684471458406 0 0 0
102 1 102 0 490.54912386862827 487.1300698039928 490.72081562816714 0 0 0
103 1 103 0 489.5156707640229 492.68480608025465 492.4315753268696 0 0 0
104 1 104 0 488.44984566840117 491.67284743498914 494.866000698884 0 0 0
105 1 105 0 487.83753506594917 488.65823892260664 488.46370756598094 0 0 0
106 1 106 0 497.04556089356004 498.25398847586996 499.36691377761434 0 0 0
108 1 108 0 496.628116049316 494.7528897378676 495.9998656916864 0 0 0
107 1 107 0 501.66005881701045 503.5144860424112 500.9015489558617 0 0 0
109 1 109 -1 503.5464029162918 502.8937400430016 509.3205730076408 0 0 0
110 1 110 0 512.6272000926032 505.51822605209514 507.0153621400613 0 0 0
111 1 111 0 514.4081297794278 515.3096028708247 509.02418630534413 0 0 0
112 1 112 0 518.3985636328198 508.8613504347802 517.8724350299024 0 0 0
113 1 113 0 515.6613312989505 515.3345485325098 513.9550535657038 0 0 0
114 1 114 0 517.1616191652315 517.733109852971 524.736982069397 0 0 0
115 1 115 1 520.4918053666208 526.1865089955382 521.098362978443 0 0 0
116 1 116 0 529.9502226674748 524.5478753431833 524.6712239603187 0 0 0
117 1 117 0 533.0850485848288 533.5946557834095 527.9325857154824 0 0 0
118 1 118 0 526.3863113682372 531.8340314471023 536.9815417282618 0 0 0
119 1 119 0 536.6727324648238 532.7191924682338 532.4722624713788 0 0 0
120 1 120 0 539.1565060316159 541.3282760019938 536.414587426725 0 0 0
121 1 121 -1 544.0043154183278 541.8633050321096 535.2244376306497 0 0 0
122 1 122 1 539.6462126690963 540.7429663445738 547.7885211384082 0 0 0
123 1 123 0 552.4280630051402 544.502708954766 542.9392774090511 0 0 0
125 1 125 -1 547.4714862624139 545.6623081765248 554.0615564931511 0 0 0
124 1 124 -1 553.3697106378484 547.5047960505349 553.0910103124785 0 0 0
126 1 126 0 551.9254616850463 552.6555790830935 555.6045941903154 0 0 0
127 1 127 0 561.7456818657785 558.6214637646557 559.8506131430844 0 0 0
128 1 128 1 562.8745406246619 556.6474404254787 562.894904955578 0 0 0
129 1 129 0 556.2772772212666 561.0758307869557 562.4527979749861 0 0 0
130 1 130 0 569.7975703233318 564.7189387844812 560.7095832119088 0 0 0
131 1 131 0 563.6979302950035 564.5844534243244 567.822370412865 0 0 0
132 1 132 -1 574.1063453890381 567.5525183506846 570.1305149066053 0 0 0
133 1 133 -1 575.5812235052748 577.1694171545894 576.1243859513011 0 0 0
134 1 134 0 572.6924130396123 576.0350357660318 573.0150152853806 0 0 0
135 1 135 0 584.1164781282288 577.8277327304926 583.5475476187146 0 0 0
136 1 136 1 586.1188940541331 576.6359793956201 580.3894011206087 0 0 0
137 1 137 0 580.3179055361588 588.6590573401196 579.9758289682154 0 0 0
139 1 139 0 587.645161538405 585.8840627003303 588.2018616124936 0 0 0
138 1 138 0 594.0089615411853 595.896617576015 594.3501307929637 0 0 0
140 1 140 0 592.2545829737181 597.8546313962728 598.9204451819089 0 0 0
141 1 141 0 602.9479764764037 598.1741391813106 601.6364596885238 0 0 0
142 1 142 0 600.3797280060612 598.7072736984065 596.3619992476902 0 0 0
143 1 143 1 597.7924266349672 604.0906188572609 601.1081511607091 0 0 0
144 1 144 0 603.8795092903824 604.8965661194966 609.1992146403921 0 0 0
145 1 145 0 602.6469341040329 608.7789027499491 606.4209168385414 0 0 0
146 1 146 0 611.6226052568327 610.4040228463928 615.66890992368 0 0 0
149 1 149 0 613.4883503329204 620.2334495952758 615.4010430000131 0 0 0
147 1 147 0 616.730288654858 613.8605634175367 620.3854469381952 0 0 0
148 1 148 0 613.9574481202567 619.8922405341086 619.0018629119414 0 0 0
150 1 150 0 611.5391808603365 622.307954018802 627.5472257085636 0 0 0
151 1 151 0 617.4018952013581 628.1614412078219 624.732751896246 0 0 0
152 1 152 0 626.704848612198 630.7168189898098 619.5512903048395 0 0 0
153 1 153 0 628.5903714356173 626.918431767371 633.2290506301006 0 0 0

Velocities

1 0.002710481134858108 -0.0002619144046693784 -0.001585751516626987
2 -0.00017889668673427042 -0.0014117565566005563 0.0023419304353678614
3 -0.0016825934764652364 -0.0004916955036092663 -0.0009236178851222711
5 0.0007415443503931645 -0.0005425705838949327 -0.0004867005920131707
4 0.002441216844566559 0.0018487213300189894 0.0008015736406462446
6 0.0017682202549069007 0.0021753642507253332 0.0015224799250791155
7 0.00450663604014178 -0.00024206004984293398 -0.0013268413972407386
8 0.0003965691011529946 0.0014429827407029779 0.002148363378346167
9 0.0027975329921143483 -0.0012264511952237763 -0.00021695736146917457
10 -0.0015099456318520012 6.833645727530694e-05 0.00254403313664456
11 -0.0019682755635442068 -0.0017649645212426393 -0.0006369429546307749
12 0.002808316349124332 -0.0006905693789549264 0.0013653271777114867
13 -0.0008979487489900233 -0.002523616641915206 -0.0010913107268950373
14 -0.0013209030472919187 -0.00021027368500901338 0.0014714996931492605
15 -0.0002731003832049653 -0.0013876273350490543 -0.00010264453060311092
16 -0.0052340409618737045 0.0025347680719689627 -0.0030818757131249506
17 -0.0020469552320561413 -0.004157332406881188 0.0016302700840273299
18 0.001665712539192515 -0.002328581925656331 -0.0024617257817190776
21 5.077039153441646e-05 -0.0002139400487226439 0.0016670133027635653
19 0.0017327504758645948 0.0003779038498078958 -0.002308128675563789
20 -0.00208495237431677 0.0018357282976440752 -0.0005546239496006221
22 0.0005702940510051524 0.0017149952532075745 -0.0004891482199097293
23 0.0010938282620268783 -0.0012315559628117516 -0.0010507026453816974
24 9.242995861950128e-06 0.0017317561411439493 -0.001130807153172867
25 0.0010115366107500041 -0.001364682670477586 -0.0005130059239119877
26 -0.0008213268587815514 0.00022622872445742014 -0.0002701550676354146
28 0.00019392706249924101 -0.0013831780476780832 -0.003790336702219762
27 -0.0030460574872251092 0.0019759194279618296 -0.0029882946444301046
29 0.0007388560914927724 -0.004527772450342524 0.0031232099247176896
30 0.00020427825282615564 -0.001118590319417812 -0.0016360494953655813
31 -0.0005737270610137687 -0.0001203786171804925 -0.0017237482271161139
32 0.0017770047366743394 -0.0005534193515988701 -0.0006525596051194122
34 0.0010893903675629048 0.0008720246267339554 0.0037189961509750784
33 0.0009418996980243553 -0.005762160928806367 0.0023255248157229304
35 2.337518208932275e-05 0.0008692148556056226 -0.0003163474539011976
36 0.004225531088171494 0.00040808316638740505 0.0015579359552566918
37 0.0007507664116877792 0.002541938358492154 -0.0006568899519317326
38 0.00154840254836294 0.0026925142304862655 0.0016601516467128642
40 -0.0027077934541583143 8.963817669913462e-05 0.001989947248166959
39 0.001773906116652712 0.0007602390423067126 -0.0006738964448042156
41 -0.0042372003824744505 0.0024479780384121168 0.00038076455764651616
42 -6.949946722533506e-05 0.0013216347049252604 0.00022603825595463064
44 -0.0014663178335652738 0.0002180934388545743 4.58437104509552e-05
43 -0.0002257144008909005 0.0005915607993355234 -0.0008972347448914162
45 -0.0013327524198156924 0.0019392192529393607 0.0009713326806755191
46 -0.0015036409036931248 0.0012625128492046779 -0.0017801264126134704
47 -0.0031910573588225344 0.000500485967296379 0.0003768613292757569
49 -0.002638025609513142 0.0022482304972676745 0.0014222457111397312
48 -0.0019100936208643214 -0.0011357012351173891 0.0010437291790974293
50 -0.0021718776282179312 -0.0024085711721756192 0.0026007621544678963
52 0.0012432965029919474 0.0013036665949824498 9.432516651489641e-05
51 -0.0004514799382147563 0.0015494602026615446 -0.00023767035956958718
53 -0.0017867998118200905 0.00015933202284015984 -0.0023161784326879197
54 0.0008174766486227567 -0.001163381114259625 -0.0009981866093233044
55 0.000991735945203762 0.000900862732115686 0.0023041047879121626
57 0.002794084690136209 -0.0032472627294064583 0.00045726924552075705
56 -0.0012297682993865668 -1.988469780492904e-05 -0.003991373230483932
58 -0.0011696576000263588 0.0009992541869076807 -0.0017884138357678492
59 1.0563219752533702e-05 0.0006588919764988887 0.0023668295417633733