LAMMPS data file via write_data, version 2 Aug 2023, timestep = 110000, units = real

5508 atoms
153 atom types
5472 bonds
152 bond types
5436 angles
151 angle types
5400 dihedrals
150 dihedral types

0 2500 xlo xhi
0 2500 ylo yhi
0 2500 zlo zhi

Masses

1 53.06263999999999
2 83.08864
3 110.15704
4 53.06263999999999
5 81.11573999999999
6 53.06263999999999
7 81.11573999999999
8 95.14233999999999
9 110.15704
10 39.03603999999999
11 97.07213999999999
12 39.03603999999999
13 79.09994
14 81.11573999999999
15 110.11394
16 39.03603999999999
17 95.14233999999999
18 95.14233999999999
19 96.08733999999998
20 129.15854
21 111.09874
22 110.11394
23 110.15704
24 111.09874
25 69.06204
26 96.08733999999998
27 39.03603999999999
28 79.09994
29 81.11573999999999
30 110.15704
31 81.11573999999999
32 168.19464
33 39.03603999999999
34 69.06204
35 95.14233999999999
36 110.15704
37 39.03603999999999
38 95.14233999999999
39 83.08864
40 111.09874
41 39.03603999999999
42 95.14233999999999
43 129.15854
44 39.03603999999999
45 129.15854
46 119.12404
47 81.11573999999999
48 119.12404
49 111.09874
50 111.09874
51 111.09874
52 97.07213999999999
53 96.08733999999998
54 83.08864
55 53.06263999999999
56 39.03603999999999
57 85.12763999999999
58 83.08864
59 69.06204
60 53.06263999999999
61 39.03603999999999
62 79.09994
63 119.12404
64 129.15854
65 96.08733999999998
66 79.09994
67 95.14233999999999
68 69.06204
69 138.17044
70 110.15704
71 119.12404
72 39.03603999999999
73 39.03603999999999
74 79.09994
75 110.15704
76 97.07213999999999
77 111.09874
78 111.09874
79 138.17044
80 119.12404
81 81.11573999999999
82 39.03603999999999
83 97.07213999999999
84 95.14233999999999
85 39.03603999999999
86 96.08733999999998
87 81.11573999999999
88 83.08864
89 53.06263999999999
90 97.07213999999999
91 110.15704
92 97.07213999999999
93 39.03603999999999
94 81.11573999999999
95 53.06263999999999
96 97.07213999999999
97 81.11573999999999
98 69.06204
99 95.14233999999999
100 111.09874
101 97.07213999999999
102 69.06204
103 81.11573999999999
104 95.14233999999999
105 69.06204
106 95.14233999999999
107 69.06204
108 39.03603999999999
109 97.07213999999999
110 119.12404
111 53.06263999999999
112 95.14233999999999
113 95.14233999999999
114 39.03603999999999
115 138.17044
116 83.08864
117 95.14233999999999
118 81.11573999999999
119 81.11573999999999
120 119.12404
121 111.09874
122 110.15704
123 53.06263999999999
124 97.07213999999999
125 97.07213999999999
126 95.14233999999999
127 39.03603999999999
128 110.15704
129 39.03603999999999
130 39.03603999999999
131 96.08733999999998
132 111.09874
133 111.09874
134 69.06204
135 83.08864
136 110.15704
137 83.08864
138 39.03603999999999
139 96.08733999999998
140 53.06263999999999
141 39.03603999999999
142 69.06204
143 138.17044
144 95.14233999999999
145 53.06263999999999
146 85.12763999999999
147 39.03603999999999
148 81.11573999999999
149 95.14233999999999
150 39.03603999999999
151 95.14233999999999
152 53.06263999999999
153 110.11394

Pair Coeffs # lj/cut/coul/debye

1 2.5 3.8
2 2.5 3.8
3 2.5 3.8
4 2.5 3.8
5 2.5 3.8
6 2.5 3.8
7 2.5 3.8
8 2.5 3.8
9 2.5 3.8
10 2.5 3.8
11 2.5 3.8
12 2.5 3.8
13 2.5 3.8
14 2.5 3.8
15 2.5 3.8
16 2.5 3.8
17 2.5 3.8
18 2.5 3.8
19 2.5 3.8
20 2.5 3.8
21 2.5 3.8
22 2.5 3.8
23 2.5 3.8
24 2.5 3.8
25 2.5 3.8
26 2.5 3.8
27 2.5 3.8
28 2.5 3.8
29 2.5 3.8
30 2.5 3.8
31 2.5 3.8
32 2.5 3.8
33 2.5 3.8
34 2.5 3.8
35 2.5 3.8
36 2.5 3.8
37 2.5 3.8
38 2.5 3.8
39 2.5 3.8
40 2.5 3.8
41 2.5 3.8
42 2.5 3.8
43 2.5 3.8
44 2.5 3.8
45 2.5 3.8
46 2.5 3.8
47 2.5 3.8
48 2.5 3.8
49 2.5 3.8
50 2.5 3.8
51 2.5 3.8
52 2.5 3.8
53 2.5 3.8
54 2.5 3.8
55 2.5 3.8
56 2.5 3.8
57 2.5 3.8
58 2.5 3.8
59 2.5 3.8
60 2.5 3.8
61 2.5 3.8
62 2.5 3.8
63 2.5 3.8
64 2.5 3.8
65 2.5 3.8
66 2.5 3.8
67 2.5 3.8
68 2.5 3.8
69 2.5 3.8
70 2.5 3.8
71 2.5 3.8
72 2.5 3.8
73 2.5 3.8
74 2.5 3.8
75 2.5 3.8
76 2.5 3.8
77 2.5 3.8
78 2.5 3.8
79 2.5 3.8
80 2.5 3.8
81 2.5 3.8
82 2.5 3.8
83 2.5 3.8
84 2.5 3.8
85 2.5 3.8
86 2.5 3.8
87 2.5 3.8
88 2.5 3.8
89 2.5 3.8
90 2.5 3.8
91 2.5 3.8
92 2.5 3.8
93 2.5 3.8
94 2.5 3.8
95 2.5 3.8
96 2.5 3.8
97 2.5 3.8
98 2.5 3.8
99 2.5 3.8
100 2.5 3.8
101 2.5 3.8
102 2.5 3.8
103 2.5 3.8
104 2.5 3.8
105 2.5 3.8
106 2.5 3.8
107 2.5 3.8
108 2.5 3.8
109 2.5 3.8
110 2.5 3.8
111 2.5 3.8
112 2.5 3.8
113 2.5 3.8
114 2.5 3.8
115 2.5 3.8
116 2.5 3.8
117 2.5 3.8
118 2.5 3.8
119 2.5 3.8
120 2.5 3.8
121 2.5 3.8
122 2.5 3.8
123 2.5 3.8
124 2.5 3.8
125 2.5 3.8
126 2.5 3.8
127 2.5 3.8
128 2.5 3.8
129 2.5 3.8
130 2.5 3.8
131 2.5 3.8
132 2.5 3.8
133 2.5 3.8
134 2.5 3.8
135 2.5 3.8
136 2.5 3.8
137 2.5 3.8
138 2.5 3.8
139 2.5 3.8
140 2.5 3.8
141 2.5 3.8
142 2.5 3.8
143 2.5 3.8
144 2.5 3.8
145 2.5 3.8
146 2.5 3.8
147 2.5 3.8
148 2.5 3.8
149 2.5 3.8
150 2.5 3.8
151 2.5 3.8
152 2.5 3.8
153 2.5 3.8

Bond Coeffs # harmonic

1 0.0656825 4.69525
2 0.00834967 5.4204
3 0.0680506 5.78515
4 0.342776 4.78356
5 0.245324 4.34267
6 0.198248 4.6898
7 0.0979559 5.69683
8 0.00974801 6.90158
9 0.0063555 5.06079
10 0.300176 4.31178
11 0.0611296 3.95148
12 0.79177 4.0204
13 0.115459 5.37228
14 0.0385086 5.39861
15 0.0671827 4.68406
16 0.192448 4.49079
17 0.297865 5.90119
18 0.0716143 5.23535
19 0.0467221 5.36366
20 0.170105 7.04148
21 0.099441 5.88465
22 0.0372457 6.48515
23 0.0105143 6.50762
24 0.0955896 4.42168
25 0.0733605 4.39475
26 0.0860933 4.7396
27 0.858434 3.9295
28 0.214384 5.73376
29 0.030309 6.49327
30 0.00742111 5.88356
31 0.0970864 5.7097
32 0.0681373 5.2801
33 0.299712 3.93238
34 0.199433 5.31267
35 0.0729301 6.91475
36 0.0298871 4.98941
37 0.0206258 4.89327
38 0.0211522 5.11614
39 0.0428518 4.95921
40 0.0808391 4.33525
41 0.127486 4.79634
42 0.164825 5.75871
43 0.239221 5.19287
44 0.199441 5.75525
45 0.101002 5.58158
46 0.213597 6.14812
47 0.112609 5.06782
48 0.0594846 6.21228
49 0.0244088 4.61455
50 0.113004 5.92267
51 0.135961 5.07594
52 0.026811 4.73743
53 0.0236647 5.50119
54 0.0652256 4.23802
55 0.11348 3.91832
56 0.234365 4.01515
57 0.180466 4.74505
58 0.136243 4.23881
59 0.39858 4.62762
60 0.386699 3.91327
61 0.930645 3.98753
62 0.142458 6.39644
63 0.0200122 6.57337
64 0.0334704 5.49762
65 0.190074 4.83881
66 0.047318 4.68663
67 0.258898 5.73148
68 0.0349272 6.01257
69 0.0142168 7.94168
70 0.0123369 7.13287
71 0.090785 4.4596
72 0.683339 3.28178
73 1.13061 4.04455
74 0.015615 5.11871
75 0.0502733 6.66346
76 0.0268945 4.95287
77 0.0227232 5.47673
78 0.0376858 5.90614
79 0.064526 6.93089
80 0.0583177 4.82109
81 0.128086 4.2001
82 0.501051 4.02119
83 0.031947 5.57247
84 0.073605 5.16554
85 0.163264 4.32683
86 0.170554 4.96911
87 0.0527538 5.2501
88 0.100814 4.51218
89 0.208354 4.3104
90 0.0085753 6.23545
91 0.00742591 5.42525
92 0.178734 4.47564
93 0.0996724 4.1203
94 0.261294 4.80327
95 0.179309 4.29654
96 0.17631 5.02762
97 0.150442 4.80406
98 0.0875107 5.22109
99 0.0370247 5.44129
100 0.118794 5.25762
101 0.186798 4.30673
102 0.104683 5.18277
103 0.105894 4.47158
104 0.0889955 5.16723
105 0.22585 5.77495
106 0.0751246 5.47604
107 0.134413 3.98129
108 0.451974 4.34881
109 0.0101665 5.52346
110 0.0544359 5.73713
111 0.125732 4.97713
112 0.028232 5.55455
113 0.316936 4.90851
114 0.0184063 4.85465
115 0.0489508 6.94624
116 0.298394 5.81792
117 0.15516 5.36238
118 0.399777 5.29376
119 0.124646 5.19535
120 0.115844 6.15465
121 0.0213336 4.54762
122 0.0362898 5.6403
123 0.370432 4.72317
124 0.301439 4.84178
125 0.197575 5.02059
126 0.662543 5.5001
127 0.113152 5.1999
128 0.0465339 4.9602
129 0.633995 3.63158
130 0.494004 4.72277
131 0.0474522 5.06287
132 0.0171292 5.27614
133 0.137229 5.59614
134 0.177907 4.52545
135 0.0318646 6.51604
136 0.0360983 4.85178
137 0.240935 4.49356
138 0.228501 4.57713
139 0.212652 5.12802
140 0.546624 3.8702
141 0.624951 4.17168
142 0.0598334 6.08554
143 0.0298165 7.72891
144 0.0539467 5.1604
145 0.354285 4.17198
146 0.442498 3.96465
147 0.424782 4.69574
148 0.168222 5.42574
149 0.257293 4.83257
150 0.203181 4.90158
151 0.218443 5.14445
152 0.02334 5.0699

Angle Coeffs # harmonic

1 1.63123e-05 88.2658
2 6.07373e-05 86.603
3 0.000136633 101.084
4 0.000164416 106.528
5 7.56601e-05 93.2769
6 0.000135808 65.6909
7 3.34003e-05 65.4418
8 0.000105119 82.1748
9 2.11382e-05 133.423
10 0.000130526 67.0498
11 5.17951e-05 166.22
12 0.000174943 67.0901
13 4.5819e-05 85.0865
14 8.83237e-05 94.6229
15 4.60445e-05 129.272
16 0.000117415 82.5879
17 0.000187349 73.8393
18 0.00022483 74.8551
19 0.000129389 77.8325
20 0.000221263 85.2865
21 9.23077e-05 51.9848
22 0.000223943 54.893
23 5.62727e-05 122.668
24 3.10093e-05 72.4734
25 1.39878e-05 85.9852
26 4.55647e-05 166.45
27 8.21987e-05 96.5285
28 4.59456e-05 80.8339
29 0.000176627 57.0894
30 5.60325e-05 61.2822
31 0.000163345 87.6358
32 7.68907e-05 152.393
33 8.75377e-05 115.13
34 0.000132609 87.3303
35 0.000302415 64.4126
36 0.000155795 122.74
37 7.76639e-05 91.5845
38 7.22722e-05 110.137
39 9.29834e-05 94.8539
40 8.70558e-05 165.444
41 0.00020408 62.3093
42 0.000289993 88.8104
43 0.000149177 101.748
44 0.000295438 55.552
45 0.000239189 87.6385
46 0.00017163 70.9181
47 9.55188e-05 94.9783
48 0.000126436 122.532
49 4.91647e-05 113.278
50 0.000113748 87.907
51 2.02652e-05 84.1379
52 8.56043e-05 67.5439
53 8.29749e-05 93.5823
54 7.05098e-06 131.73
55 2.72633e-05 120.926
56 3.84553e-05 118.36
57 0.000240008 75.4115
58 7.1386e-05 107.81
59 8.01769e-05 90.7814
60 3.64824e-05 135.094
61 0.000165626 107.552
62 3.73856e-05 73.6914
63 5.44078e-05 66.8885
64 0.000133231 60.3283
65 4.03452e-05 91.0101
66 0.000100947 81.5821
67 0.000207393 47.4286
68 8.49607e-05 81.2099
69 0.000244083 88.0186
70 6.91354e-05 69.5148
71 7.38011e-05 119.524
72 5.05922e-05 151.644
73 2.34841e-05 99.629
74 0.000197753 70.2563
75 4.60348e-05 132.728
76 0.000108398 76.2728
77 6.36545e-05 95.3754
78 0.000263739 76.2551
79 6.16802e-05 89.9343
80 0.000160501 66.6384
81 8.01228e-05 105.768
82 0.000120861 64.1991
83 0.000154634 67.4211
84 7.10821e-05 130.012
85 6.2461e-05 101.951
86 0.000111868 91.1312
87 8.19599e-05 95.5166
88 6.09599e-05 104.269
89 2.36879e-05 120.548
90 2.82587e-05 56.064
91 2.27598e-05 103.341
92 0.000106337 76.2238
93 5.18483e-05 94.6945
94 4.5681e-05 116.662
95 6.02147e-05 107.074
96 0.000153764 90.5867
97 0.000102073 81.5916
98 7.21111e-05 89.8569
99 8.21608e-05 78.0386
100 3.59504e-05 118.968
101 3.85801e-05 66.3988
102 4.36786e-05 98.8264
103 7.3338e-05 115.679
104 3.05333e-05 69.3844
105 0.000131381 52.6677
106 3.59849e-05 116.253
107 3.04275e-05 122.587
108 0.000122372 82.6445
109 0.000153069 67.4746
110 4.30293e-05 108.218
111 0.000118113 65.9205
112 8.89234e-05 88.4746
113 9.94877e-05 89.8808
114 0.000188495 74.7961
115 0.000128169 103.291
116 0.000377337 66.9141
117 0.000120885 89.0583
118 0.000247301 62.8863
119 0.000108949 96.1458
120 6.9967e-05 94.514
121 0.000136608 107.788
122 5.70207e-05 116.139
123 9.96363e-05 96.9972
124 0.000383675 59.9331
125 0.000336246 52.3446
126 0.000243442 73.8061
127 0.00033258 63.3358
128 0.000119193 127.086
129 8.30532e-05 93.799
130 5.0515e-05 94.3797
131 0.000180203 72.2846
132 0.000111146 81.1097
133 0.000176176 90.6299
134 0.000148006 87.3305
135 0.000176728 86.4753
136 9.95479e-05 117.447
137 7.15812e-05 86.6997
138 0.000268677 66.6835
139 0.000153131 82.0076
140 0.000122612 131.054
141 9.11577e-05 102.618
142 0.000200391 50.406
143 0.000235885 69.1224
144 0.00015875 132.931
145 0.000154788 124.994
146 5.89339e-05 143.573
147 0.000112608 87.3545
148 0.000135616 78.5068
149 3.0941e-05 134.529
150 0.000161876 78.9006
151 1.33587e-05 105.066

Dihedral Coeffs # quadratic

1 0.00108327 94.0595 
2 0.0186276 174.106 
3 0.00779362 165.303 
4 0.0107877 168.054 
5 0.0109202 156.417 
6 0.00741722 161.554 
7 0.00618197 168.885 
8 0.00310137 157.944 
9 0.00108413 90.6513 
10 0.000245219 72.7783 
11 0.000205145 88.8641 
12 0.00214089 123.97 
13 0.0129654 173.365 
14 0.0123 173.653 
15 0.0126165 173.192 
16 0.0127964 174.077 
17 0.0111825 146.06 
18 0.00950509 155.262 
19 0.0193196 174.422 
20 0.00671209 167.406 
21 0.00178881 162.387 
22 0.00200082 24.6775 
23 0.000606445 140.937 
24 0.0015887 59.437 
25 0.000131281 105.283 
26 0.000211726 106.857 
27 0.00213385 139.294 
28 0.00506678 149.821 
29 0.0136644 135.814 
30 0.00915348 140.026 
31 0.00192306 154.944 
32 0.00258346 145.969 
33 0.0190879 173.505 
34 0.00744504 161.282 
35 0.00396785 17.0483 
36 0.00102546 145.138 
37 0.00456103 104.819 
38 0.00555549 58.4182 
39 0.000253881 92.8091 
40 0.000276449 100.587 
41 0.0248291 175.963 
42 0.0111068 102.934 
43 0.0149536 161.572 
44 0.0193512 167.673 
45 0.00851694 120.737 
46 0.0198731 156.428 
47 0.00094002 75.7242 
48 0.000685083 41.8833 
49 0.00180602 49.7855 
50 0.00676178 170.393 
51 0.00480948 165.839 
52 0.00108761 91.6964 
53 0.000895901 23.7413 
54 0.000263908 53.8208 
55 0.00126285 68.9447 
56 0.00199516 107.194 
57 0.00187796 39.7264 
58 0.0095973 172.46 
59 0.00347423 160.421 
60 0.00142047 107.093 
61 0.00330017 90.4644 
62 0.00218279 125.421 
63 0.00247237 159.842 
64 0.00185118 160.876 
65 0.00239565 33.0135 
66 0.000637353 127.571 
67 0.00157332 163.751 
68 0.00341237 83.4785 
69 0.00431651 87.7172 
70 0.00217667 128.905 
71 0.00121725 157.464 
72 0.00101384 25.2165 
73 0.00264986 37.3519 
74 0.00155532 95.3608 
75 0.00196206 131.172 
76 0.00842657 54.4412 
77 0.00279269 153.611 
78 0.00475629 154.593 
79 0.00410104 109.161 
80 0.00333622 41.5347 
81 0.000921692 113.11 
82 0.00237254 129.385 
83 0.00437198 172.009 
84 0.00264647 20.2316 
85 0.00659322 165.665 
86 0.00448143 122.563 
87 0.00347688 145.917 
88 0.00150898 121.858 
89 0.000637657 119.172 
90 0.000724633 67.9988 
91 0.000480946 137.606 
92 0.000460909 117.648 
93 0.00375747 161.788 
94 0.00271974 154.22 
95 0.00573222 164.236 
96 0.00541574 156.702 
97 0.00573597 156.783 
98 0.00641041 169.939 
99 0.00118206 162.244 
100 0.00127253 144.722 
101 0.000818669 112.836 
102 0.00156176 47.019 
103 0.00303846 162.6 
104 0.0043597 130.802 
105 0.00118296 117.72 
106 0.00112673 89.5511 
107 0.00306534 13.0547 
108 0.00271001 52.0055 
109 0.00224689 130.202 
110 0.00722195 168.52 
111 0.00222466 109.831 
112 0.00386852 35.0959 
113 0.0129918 124.332 
114 0.00911602 95.7643 
115 0.0109781 139.182 
116 0.0153105 161.639 
117 0.0159928 140.821 
118 0.0132691 144.1 
119 0.00557599 131.476 
120 0.00234883 53.4176 
121 0.00183009 93.4121 
122 0.00463225 85.8383 
123 0.00847154 150.543 
124 0.00583711 140.846 
125 0.0182805 59.7255 
126 0.00518398 165.126 
127 0.0021739 22.7988 
128 0.00132988 107.119 
129 0.00598709 170.563 
130 0.00487384 135.194 
131 0.01739 37.417 
132 0.00752349 43.1017 
133 0.00749474 28.065 
134 0.00542925 36.0793 
135 0.0065703 9.48408 
136 0.00379204 90.0532 
137 0.0028774 97.2109 
138 0.00387975 146.759 
139 0.00381985 167.216 
140 0.00194584 75.6396 
141 0.010239 116.466 
142 0.0129524 170.987 
143 0.00979496 7.70528 
144 0.00836989 153.881 
145 0.00882428 171.381 
146 0.0065018 143.188 
147 0.0131213 132.856 
148 0.00143453 146.018 
149 0.00228062 107.039 
150 0.00219014 126.197 

Atoms # full

1 1 1 0 225.31276068057005 221.62154445551454 163.62101277131654 0 0 0
154 2 1 0 1059.5032501378453 221.2844281248573 164.1277160359152 0 0 0
307 3 1 0 1892.1162873649369 221.4614069050769 163.34646876311666 0 0 0
155 2 2 0 1059.2651221876035 223.08880307811555 169.87275138386 0 0 0
460 4 1 0 225.57955056534237 1054.8180824907356 163.19749986975376 0 0 0
461 4 2 0 225.8746590866265 1055.2893284739837 169.99449316422263 0 0 0
613 5 1 0 1059.71957750693 1054.8806274643073 163.00033202374144 0 0 0
614 5 2 0 1059.9338729203148 1055.0224935065278 169.9748871997181 0 0 0
766 6 1 0 1893.400137925802 1055.0353577366543 163.62699072150497 0 0 0
767 6 2 0 1892.8866691609094 1055.3543018212683 170.1342923217376 0 0 0
919 7 1 0 225.40394673862957 1888.212738212065 163.91391777888384 0 0 0
920 7 2 0 226.59972018760723 1888.0733099746549 170.0489899008969 0 0 0
922 7 4 0 237.2802813408377 1889.3643505543043 170.08658007794295 0 0 0
1072 8 1 0 1059.1507494331975 1888.8621761669551 164.32114054933652 0 0 0
1073 8 2 0 1060.0023545303388 1888.8963312824812 169.80531195656238 0 0 0
1075 8 4 0 1070.2013855084485 1889.2875830260775 169.97952290094597 0 0 0
1225 9 1 0 1892.3894312290413 1888.3530762738474 164.53036658872512 0 0 0
1226 9 2 0 1893.0898683270225 1888.8238057922258 169.7155498012547 0 0 0
308 3 2 0 1892.7712122910475 221.855705771043 170.25172612088062 0 0 0
2 1 2 0 226.43940387113398 222.76797199550217 170.29842272666312 0 0 0
3 1 3 1 230.76262018609486 226.76466986210062 170.73009589585118 0 0 0
5 1 5 0 226.8256258292447 228.77129725106641 173.68689510693113 0 0 0
4 1 4 0 236.66961746715867 222.814948267983 170.3373441861718 0 0 0
157 2 4 0 1070.286488277755 222.8015282587476 170.66932832213197 0 0 0
158 2 5 0 1060.3817084519878 228.9000251592534 173.59251067506176 0 0 0
156 2 3 1 1063.881429152113 227.25750556907545 171.03689327179467 0 0 0
311 3 5 0 1893.529260145363 228.5570262734233 173.4738962417448 0 0 0
309 3 3 1 1897.6840870952813 227.1584270606958 170.5168436637489 0 0 0
310 3 4 0 1903.6038103806463 222.53704045467043 170.59285929847516 0 0 0
8 1 8 0 235.34973462805524 245.8389459340605 180.53513757130844 0 0 0
6 1 6 0 238.95913408539377 236.01866848759946 177.1720557056721 0 0 0
7 1 7 0 236.26520949674267 244.49340367585444 176.1075722082829 0 0 0
9 1 9 1 241.52576273451146 242.88651090983439 180.98180768106255 0 0 0
10 1 10 0 239.09781384222018 248.52979293780814 183.0413792016721 0 0 0
159 2 6 0 1071.2331329752672 236.6719985781782 178.10215748445185 0 0 0
160 2 7 0 1069.5250761210298 244.52880189656668 175.93104010719802 0 0 0
161 2 8 0 1068.8166498875432 244.8120209081809 180.03480867303963 0 0 0
162 2 9 1 1074.8070422377648 243.0157927273231 180.74006490089525 0 0 0
312 3 6 0 1904.1728067048982 236.93410791416233 176.99457827128586 0 0 0
313 3 7 0 1903.0564837453348 244.9563265763608 175.7281274076426 0 0 0
314 3 8 0 1902.6208672750565 245.3005389257229 180.60996455485247 0 0 0
315 3 9 1 1907.820974507149 243.21538593132024 181.3788630395415 0 0 0
316 3 10 0 1906.6965305188398 248.14202000535263 182.32760789852125 0 0 0
463 4 4 0 237.34928628392694 1056.0605912955536 170.18525672184967 0 0 0
616 5 4 0 1070.412806014394 1056.386634296167 170.17336149683743 0 0 0
768 6 3 1 1897.183233343604 1060.1957151140937 170.69579455022847 0 0 0
769 6 4 0 1903.1381782396631 1056.419637537735 170.4294585128386 0 0 0
464 4 5 0 226.8583179924178 1062.039510075522 173.77060703224566 0 0 0
462 4 3 1 230.84918041025765 1060.8132732078268 170.98414784177697 0 0 0
465 4 6 0 237.1910287699035 1069.5885488566432 177.56418075812036 0 0 0
617 5 5 0 1060.2210917181646 1061.7614764675434 174.2573041401491 0 0 0
615 5 3 1 1063.520101908293 1060.2487620708814 171.11015921121955 0 0 0
618 5 6 0 1070.5478235486312 1069.6681061027286 177.33505690064854 0 0 0
770 6 5 0 1893.386476074787 1062.0459481216842 173.5554785734451 0 0 0
771 6 6 0 1904.1317237283065 1069.5076826487523 177.91341587733456 0 0 0
466 4 7 0 236.27310323473642 1077.385093033366 175.98440211216936 0 0 0
468 4 9 1 240.80956743571136 1076.1558149853654 180.69253777631252 0 0 0
467 4 8 0 235.8983795106585 1079.1312948633154 179.53801889436147 0 0 0
469 4 10 0 240.01437870161362 1081.7884408198975 182.91782140340345 0 0 0
619 5 7 0 1068.9875483269063 1077.3132547849193 175.75457284706576 0 0 0
620 5 8 0 1069.0406464554042 1078.923882616029 180.72846184121235 0 0 0
622 5 10 0 1073.1531682016566 1081.7886325599784 182.91944098312192 0 0 0
621 5 9 1 1074.737037105088 1076.0791442943794 180.89835509430063 0 0 0
772 6 7 0 1902.6924560599543 1077.20300039048 176.09638937574115 0 0 0
773 6 8 0 1902.8212257266687 1078.654630780173 180.25768114247995 0 0 0
774 6 9 1 1907.9088988631634 1075.9201186664975 181.03261395422197 0 0 0
775 6 10 0 1906.7383629743767 1081.2851959757677 182.38989547727462 0 0 0
921 7 3 1 230.37011477360178 1893.3826134671717 171.08279839976132 0 0 0
923 7 5 0 226.99855131261694 1895.7114565202153 173.956329363656 0 0 0
1076 8 5 0 1060.0852111487254 1895.1774726580597 173.51285070475686 0 0 0
1074 8 3 1 1063.2679501773332 1893.449272073635 170.51327733089641 0 0 0
1227 9 3 1 1897.8119801942764 1894.0959038744377 171.14598004481806 0 0 0
1229 9 5 0 1893.4162138713791 1894.9175840078983 173.2675561479787 0 0 0
1228 9 4 0 1903.313784926054 1889.2952126964572 170.59044216061145 0 0 0
924 7 6 0 237.15771676088866 1903.102580362926 177.4284234645 0 0 0
927 7 9 1 241.61285120109875 1909.7303369020333 181.0932473777104 0 0 0
1077 8 6 0 1071.1292996207424 1902.4199828411681 178.00354213931567 0 0 0
1080 8 9 1 1074.9826314653806 1909.4830922601466 181.10365497435993 0 0 0
1230 9 6 0 1904.9321023244029 1903.6786115173402 177.36383201782476 0 0 0
1231 9 7 0 1903.3566397692207 1910.6850806641507 175.32265242660534 0 0 0
1233 9 9 1 1908.1524993487415 1909.733283057012 180.68103198059313 0 0 0
925 7 7 0 236.321738222604 1911.3742635362205 176.18580125599485 0 0 0
926 7 8 0 235.90535149364052 1912.2404742873816 181.0933885625144 0 0 0
928 7 10 0 238.83770385119854 1915.9474377850822 183.02439028295024 0 0 0
1078 8 7 0 1069.5542968473237 1911.1393701263619 176.36488574691109 0 0 0
1079 8 8 0 1069.0633819132918 1912.0967521358677 180.8935982254967 0 0 0
1081 8 10 0 1073.338211750169 1915.0280478975742 182.2750836930478 0 0 0
1232 9 8 0 1902.3001239444466 1911.9881983226664 180.4980496169944 0 0 0
1234 9 10 0 1906.75995666414 1914.6994837656705 183.0593209948001 0 0 0
12 1 12 0 260.6708307923073 246.47599453339663 188.95189191177874 0 0 0
163 2 10 0 1073.2413105028177 247.77071801542678 183.39133879948955 0 0 0
165 2 12 0 1093.2128195648575 246.7023423939348 189.71344392867454 0 0 0
317 3 11 -1 1912.3156118822183 248.30153541901052 191.8769244664243 0 0 0
318 3 12 0 1927.9410563274446 246.67888979573206 189.52166078514378 0 0 0
11 1 11 -1 245.79207369074825 248.74656359870218 191.36369334056258 0 0 0
13 1 13 0 254.9466558495797 260.93506276140204 192.31537369625718 0 0 0
14 1 14 0 253.39397736029653 260.48456042476033 193.1238610701391 0 0 0
15 1 15 0 261.34692846674693 261.40684383581345 193.65991533988745 0 0 0
164 2 11 -1 1078.234521464005 248.93861290012714 191.97090714034042 0 0 0
166 2 13 0 1088.7860908270734 261.1551318175699 192.24997747357003 0 0 0
167 2 14 0 1087.2271052133142 260.37928064581973 193.2657041548757 0 0 0
320 3 14 0 1920.4936160222082 260.10790833720404 193.01684170188977 0 0 0
319 3 13 0 1922.448075614213 260.3565391082175 192.51179419342986 0 0 0
168 2 15 0 1094.75856928503 261.91194972960204 192.84836804286206 0 0 0
169 2 16 0 1093.3391786527504 263.9225751575056 195.90310672356912 0 0 0
321 3 15 0 1928.5444533245388 261.77602077039194 192.937938370352 0 0 0
322 3 16 0 1926.42976480632 265.2426402808184 196.2255192563568 0 0 0
470 4 11 -1 245.25972788394756 1081.9933458127402 191.68158391383517 0 0 0
471 4 12 0 260.46660982618897 1079.8702133581 189.25719903286122 0 0 0
623 5 11 -1 1078.5571485820244 1081.4854858417834 191.66492087721213 0 0 0
624 5 12 0 1094.1830175300395 1079.8629206663759 189.67362298757874 0 0 0
776 6 11 -1 1911.8433379102385 1082.1246570061494 191.70081845442448 0 0 0
777 6 12 0 1927.267529916816 1079.707633018087 190.4612623239465 0 0 0
472 4 13 0 255.70317887778413 1094.1087084805674 192.65123202058814 0 0 0
473 4 14 0 254.32283599463108 1093.4642150618897 193.25651996860947 0 0 0
475 4 16 0 260.0495708903402 1097.3113883827837 196.12289840435574 0 0 0
474 4 15 0 262.24779409857354 1095.1392304305762 192.8136556037036 0 0 0
625 5 13 0 1088.8258362326305 1094.0292841751927 192.40252848310223 0 0 0
626 5 14 0 1087.650184334112 1094.1256715709637 194.05237927390561 0 0 0
627 5 15 0 1095.1790889138576 1095.8270921050366 192.81235504089406 0 0 0
779 6 14 0 1920.2908509877514 1094.2109003537287 193.7996178040067 0 0 0
778 6 13 0 1921.870113873504 1093.6471529255828 192.3583344162007 0 0 0
780 6 15 0 1928.838661806996 1095.2575121969978 193.07965770202492 0 0 0
781 6 16 0 1927.7653060619268 1097.3811362595602 196.13766040870124 0 0 0
929 7 11 -1 245.79031496478558 1915.152228849449 191.662675506208 0 0 0
930 7 12 0 260.11958685471785 1913.5704898119443 189.83588992263867 0 0 0
1082 8 11 -1 1078.8666781391476 1914.74339196561 192.0429432455403 0 0 0
1083 8 12 0 1094.1826038850263 1913.2512482690802 189.70227562390897 0 0 0
1235 9 11 -1 1911.9610066055568 1915.1553419700285 192.0716650272027 0 0 0
1236 9 12 0 1927.0084538519961 1914.2555777533544 189.0633718569031 0 0 0
931 7 13 0 255.87142103462782 1927.2611305014805 192.25591386392082 0 0 0
932 7 14 0 254.17533145698533 1926.9533644098406 193.41252103612678 0 0 0
933 7 15 0 261.94574217363476 1928.5581842361873 192.79312454220667 0 0 0
1084 8 13 0 1088.7355218055236 1927.5286218377541 192.20359095858672 0 0 0
1085 8 14 0 1086.5511731130173 1927.3122662227695 193.50298110369576 0 0 0
1086 8 15 0 1094.8204827820696 1928.155939946298 193.1862640508203 0 0 0
1087 8 16 0 1093.8689887620562 1930.9708850110144 195.51677443665906 0 0 0
1238 9 14 0 1919.9819315868322 1926.8776216579436 193.0974746796931 0 0 0
1237 9 13 0 1922.5011572483297 1927.5442529928623 192.67262850126605 0 0 0
1239 9 15 0 1928.6052350788495 1927.5430925458897 193.62465140638466 0 0 0
1240 9 16 0 1926.4128588727783 1930.3171710856134 196.04093465851292 0 0 0
16 1 16 0 260.2450781580425 263.1293539969529 196.553396733063 0 0 0
17 1 17 0 262.8935156565264 263.6851770238151 202.77652707842813 0 0 0
18 1 18 0 270.42271398558285 270.07974058923196 200.9338555613755 0 0 0
170 2 17 0 1096.861707060074 263.03697378612526 203.13094307639105 0 0 0
171 2 18 0 1104.1984016948902 269.25550917835693 200.4673040144939 0 0 0
323 3 17 0 1930.425275334584 263.5417644331151 202.57821065401174 0 0 0
324 3 18 0 1937.4622079374928 270.06519927490626 201.11793817489323 0 0 0
21 1 21 -1 276.04889015264894 283.35699021985835 207.0213439382223 0 0 0
174 2 21 -1 1109.7532787053358 283.28889573343037 207.3591045467766 0 0 0
327 3 21 -1 1942.2657271264127 283.562141272722 207.35694981938522 0 0 0
476 4 17 0 262.6644833833699 1096.4750802480683 202.55044307735912 0 0 0
628 5 16 0 1092.5393527903423 1097.1717705602964 196.66185616572207 0 0 0
629 5 17 0 1096.6400275708372 1096.0899800103157 203.0502978864257 0 0 0
782 6 17 0 1929.4953086937396 1096.6037940987517 202.5211959382144 0 0 0
477 4 18 0 270.29938538798524 1102.876641174806 200.69315845061521 0 0 0
630 5 18 0 1104.3450315243858 1103.1132045538045 201.26216781075655 0 0 0
783 6 18 0 1936.909280004572 1102.6022240399486 201.1893770597253 0 0 0
480 4 21 -1 275.86117991086985 1116.781366898478 207.0375724541708 0 0 0
633 5 21 -1 1109.3233390406758 1116.9286167692217 207.39405801422413 0 0 0
786 6 21 -1 1942.9036752810377 1116.2668021908933 206.75330069417876 0 0 0
934 7 16 0 260.18503400042084 1930.3415992074106 196.40797860583356 0 0 0
935 7 17 0 262.98991339566953 1930.1257052374885 203.17859399922784 0 0 0
936 7 18 0 270.6502120875108 1936.299654093114 201.01775304632054 0 0 0
1088 8 17 0 1096.412959473889 1929.7396252070357 202.78073965926103 0 0 0
1089 8 18 0 1104.5979784284868 1936.5959064464946 200.87951675512485 0 0 0
1241 9 17 0 1929.7347383763465 1929.6319529527875 202.37527593039732 0 0 0
1242 9 18 0 1938.0596442636036 1936.6569643117775 200.91623764220842 0 0 0
939 7 21 -1 275.69913473637416 1950.2295518517374 207.64383625921033 0 0 0
1092 8 21 -1 1109.1678391831813 1949.3542570953296 207.19997539519173 0 0 0
1245 9 21 -1 1942.6149298623614 1950.3406961482906 207.52785184562603 0 0 0
19 1 19 0 273.88652545239944 271.44864309501503 210.58849650307107 0 0 0
172 2 19 0 1107.1834993824202 271.19125350642514 209.9760278543386 0 0 0
325 3 19 0 1940.7510995625032 271.3170707241847 211.46789264152116 0 0 0
20 1 20 0 279.0565400994331 278.5098544132642 210.2787762194718 0 0 0
22 1 22 0 287.49854767353645 280.8876661926502 210.29919219851894 0 0 0
173 2 20 0 1112.4759363771018 278.7676683930395 210.70833603465059 0 0 0
175 2 22 0 1121.7963070474345 281.0707557463687 210.09282812323087 0 0 0
326 3 20 0 1946.171356534241 279.07800675759546 210.77304540480455 0 0 0
328 3 22 0 1954.7388690297573 280.57323344335015 210.09519538436948 0 0 0
23 1 23 1 282.660732661537 289.3417524064365 212.899962518157 0 0 0
24 1 24 -1 292.9281848156279 290.1962011124164 217.41756576614284 0 0 0
25 1 25 0 298.0254617009459 299.1508722506161 215.6920605657526 0 0 0
176 2 23 1 1114.962169902391 290.1504864422485 213.4565228188641 0 0 0
177 2 24 -1 1126.1392450842256 290.28832751506985 217.111254153584 0 0 0
178 2 25 0 1131.4312734759112 299.39174114717974 215.80697492487946 0 0 0
329 3 23 1 1948.5164708555508 290.1188904073742 213.09814605584486 0 0 0
330 3 24 -1 1959.3743768246209 290.1959054912846 217.29435574383456 0 0 0
331 3 25 0 1964.676783548737 299.21641827144435 216.67504361721248 0 0 0
478 4 19 0 273.97492234763695 1104.413162375333 209.8155301219252 0 0 0
479 4 20 0 279.4762297501016 1112.4392320071004 210.8643525274468 0 0 0
631 5 19 0 1107.2201417067965 1104.5338974930157 210.8456049639716 0 0 0
632 5 20 0 1112.7048194904473 1111.8517124555926 210.89026113779295 0 0 0
784 6 19 0 1940.8465321686208 1104.6179539992415 210.7026787819499 0 0 0
785 6 20 0 1946.010758916746 1112.2796668855497 210.6434422083002 0 0 0
481 4 22 0 287.63727129252845 1114.248894942047 209.94744228476972 0 0 0
482 4 23 1 282.6959501094269 1123.342738745699 213.46490905260904 0 0 0
483 4 24 -1 292.82717307725545 1122.933091777268 216.74862360592584 0 0 0
634 5 22 0 1121.544566778352 1114.2962236098535 210.42267398793481 0 0 0
635 5 23 1 1115.2198085218888 1123.0679334398342 213.88005579828592 0 0 0
636 5 24 -1 1126.4368862581584 1122.9071130972777 216.49425003583994 0 0 0
788 6 23 1 1949.3778076570215 1123.1138649460477 213.22312287220015 0 0 0
787 6 22 0 1954.6460015799466 1113.8201238712788 210.2974317536798 0 0 0
789 6 24 -1 1959.6245019750465 1123.8550413716991 216.6098356219754 0 0 0
484 4 25 0 297.61482258011307 1132.9595050525202 216.26325300784384 0 0 0
637 5 25 0 1131.184818749712 1132.9221868882216 216.0962661042627 0 0 0
790 6 25 0 1964.6908492643345 1133.2829595471862 215.58590848180566 0 0 0