LAMMPS (2 Aug 2023 - Update 1)
OMP_NUM_THREADS environment is not set. Defaulting to 1 thread. (src/comm.cpp:98)
  using 1 OpenMP thread(s) per MPI task
units real
dimension 3
boundary p p p

atom_style full
pair_style lj/cut/coul/debye 0.1 24.1 15.0
bond_style harmonic
# angle_style harmonic
# dihedral_style quadratic
read_data polymer.data
Reading data file ...
  orthogonal box = (0 0 0) to (750 750 750)
  1 by 1 by 1 MPI processor grid
  reading atoms ...
  153 atoms
  reading velocities ...
  153 velocities
  scanning bonds ...
  1 = max bonds/atom
  reading bonds ...
  152 bonds
Finding 1-2 1-3 1-4 neighbors ...
  special bond factors lj:    0        0        0       
  special bond factors coul:  0        0        0       
     2 = max # of 1-2 neighbors
     2 = max # of 1-3 neighbors
     4 = max # of 1-4 neighbors
     6 = max # of special neighbors
  special bonds CPU = 0.000 seconds
  read_data CPU = 0.004 seconds

pair_coeff * * 2.5 3.80
dielectric 80.0

thermo 100
thermo_style custom step temp pe press vol lx density
dump mymindump all custom 10 dump.min.lammpstrj id x y z

# fix mynpt all npt temp 300.0 300.0 100.0 iso 0.0 0.0 10000.0
fix mynve all nve
fix rgfix all spring/rg 1000.0 2
minimize 0 0 10000 10000
Generated 0 of 11628 mixed pair_coeff terms from geometric mixing rule
Neighbor list info ...
  update: every = 1 steps, delay = 0 steps, check = yes
  max neighbors/atom: 2000, page size: 100000
  master list distance cutoff = 26.1
  ghost atom cutoff = 26.1
  binsize = 13.05, bins = 58 58 58
  1 neighbor lists, perpetual/occasional/extra = 1 0 0
  (1) pair lj/cut/coul/debye, perpetual
      attributes: half, newton on
      pair build: half/bin/newton
      stencil: half/bin/3d
      bin: standard
Per MPI rank memory allocation (min/avg/max) = 8.518 | 8.518 | 8.518 Mbytes
   Step          Temp          PotEng         Press          Volume           Lx          Density    
         0   696265.94      1.9633585      34.17984       4.21875e+08    750            5.1286973e-05
       100   696265.94      1.820394       34.179965      4.21875e+08    750            5.1286973e-05
       200   696265.94      1.7556519      34.180023      4.21875e+08    750            5.1286973e-05
       300   696265.94      1.7055971      34.180067      4.21875e+08    750            5.1286973e-05
       400   696265.94      1.6636338      34.180105      4.21875e+08    750            5.1286973e-05
       500   696265.94      1.6263436      34.180138      4.21875e+08    750            5.1286973e-05
       600   696265.94      1.5929017      34.180168      4.21875e+08    750            5.1286973e-05
       700   696265.94      1.5618395      34.180195      4.21875e+08    750            5.1286973e-05
       800   696265.94      1.5332067      34.180221      4.21875e+08    750            5.1286973e-05
       900   696265.94      1.5063144      34.180245      4.21875e+08    750            5.1286973e-05
      1000   696265.94      1.4808788      34.180268      4.21875e+08    750            5.1286973e-05
      1100   696265.94      1.4563745      34.180289      4.21875e+08    750            5.1286973e-05
      1200   696265.94      1.4332551      34.18031       4.21875e+08    750            5.1286973e-05
      1300   696265.94      1.4110808      34.18033       4.21875e+08    750            5.1286973e-05
      1400   696265.94      1.3894357      34.180349      4.21875e+08    750            5.1286973e-05
      1500   696265.94      1.3688457      34.180367      4.21875e+08    750            5.1286973e-05
      1600   696265.94      1.3489317      34.180385      4.21875e+08    750            5.1286973e-05
      1700   696265.94      1.3296313      34.180402      4.21875e+08    750            5.1286973e-05
      1800   696265.94      1.3105831      34.180419      4.21875e+08    750            5.1286973e-05
      1900   696265.94      1.2923542      34.180435      4.21875e+08    750            5.1286973e-05
      2000   696265.94      1.2745997      34.180451      4.21875e+08    750            5.1286973e-05
      2100   696265.94      1.2572842      34.180467      4.21875e+08    750            5.1286973e-05
      2200   696265.94      1.2403771      34.180482      4.21875e+08    750            5.1286973e-05
      2300   696265.94      1.2235425      34.180497      4.21875e+08    750            5.1286973e-05
      2400   696265.94      1.2073708      34.180511      4.21875e+08    750            5.1286973e-05
      2500   696265.94      1.191534       34.180525      4.21875e+08    750            5.1286973e-05
      2600   696265.94      1.1760126      34.180539      4.21875e+08    750            5.1286973e-05
      2700   696265.94      1.1607889      34.180553      4.21875e+08    750            5.1286973e-05
      2800   696265.94      1.1455397      34.180566      4.21875e+08    750            5.1286973e-05
      2900   696265.94      1.1308638      34.180579      4.21875e+08    750            5.1286973e-05
      3000   696265.94      1.1164425      34.180592      4.21875e+08    750            5.1286973e-05
      3100   696265.94      1.1022639      34.180605      4.21875e+08    750            5.1286973e-05
      3200   696265.94      1.0883171      34.180618      4.21875e+08    750            5.1286973e-05
      3300   696265.94      1.0745923      34.18063       4.21875e+08    750            5.1286973e-05
      3400   696265.94      1.0607727      34.180642      4.21875e+08    750            5.1286973e-05
      3500   696265.94      1.0474639      34.180654      4.21875e+08    750            5.1286973e-05
      3600   696265.94      1.0343522      34.180666      4.21875e+08    750            5.1286973e-05
      3700   696265.94      1.0214304      34.180677      4.21875e+08    750            5.1286973e-05
      3800   696265.94      1.0086921      34.180689      4.21875e+08    750            5.1286973e-05
      3900   696265.94      0.99613129     34.1807        4.21875e+08    750            5.1286973e-05
      4000   696265.94      0.98374241     34.180711      4.21875e+08    750            5.1286973e-05
      4100   696265.94      0.97121208     34.180722      4.21875e+08    750            5.1286973e-05
      4200   696265.94      0.95915091     34.180733      4.21875e+08    750            5.1286973e-05
      4300   696265.94      0.9472474      34.180744      4.21875e+08    750            5.1286973e-05
      4400   696265.94      0.9354974      34.180755      4.21875e+08    750            5.1286973e-05
      4500   696265.94      0.92389704     34.180765      4.21875e+08    750            5.1286973e-05
      4600   696265.94      0.91244269     34.180776      4.21875e+08    750            5.1286973e-05
      4700   696265.94      0.90113098     34.180786      4.21875e+08    750            5.1286973e-05
      4800   696265.94      0.88965057     34.180796      4.21875e+08    750            5.1286973e-05
      4900   696265.94      0.87861379     34.180806      4.21875e+08    750            5.1286973e-05
      5000   696265.94      0.86771069     34.180816      4.21875e+08    750            5.1286973e-05
      5100   696265.94      0.8569386      34.180826      4.21875e+08    750            5.1286973e-05
      5200   696265.94      0.84629497     34.180836      4.21875e+08    750            5.1286973e-05
      5300   696265.94      0.83577743     34.180845      4.21875e+08    750            5.1286973e-05
      5400   696265.94      0.82538369     34.180855      4.21875e+08    750            5.1286973e-05
      5500   696265.94      0.81480398     34.180864      4.21875e+08    750            5.1286973e-05
      5600   696265.94      0.80465055     34.180874      4.21875e+08    750            5.1286973e-05
      5700   696265.94      0.79461477     34.180883      4.21875e+08    750            5.1286973e-05
      5800   696265.94      0.78469471     34.180892      4.21875e+08    750            5.1286973e-05
      5900   696265.94      0.77488857     34.180901      4.21875e+08    750            5.1286973e-05
      6000   696265.94      0.7651946      34.18091       4.21875e+08    750            5.1286973e-05
      6100   696265.94      0.75561113     34.180919      4.21875e+08    750            5.1286973e-05
      6200   696265.94      0.74613652     34.180928      4.21875e+08    750            5.1286973e-05
      6300   696265.94      0.7364616      34.180937      4.21875e+08    750            5.1286973e-05
      6400   696265.94      0.72719933     34.180946      4.21875e+08    750            5.1286973e-05
      6500   696265.94      0.71804143     34.180954      4.21875e+08    750            5.1286973e-05
      6600   696265.94      0.70898647     34.180963      4.21875e+08    750            5.1286973e-05
      6700   696265.94      0.70003309     34.180971      4.21875e+08    750            5.1286973e-05
      6800   696265.94      0.69117993     34.18098       4.21875e+08    750            5.1286973e-05
      6900   696265.94      0.68242569     34.180988      4.21875e+08    750            5.1286973e-05
      7000   696265.94      0.67376911     34.180997      4.21875e+08    750            5.1286973e-05
      7100   696265.94      0.66490155     34.181005      4.21875e+08    750            5.1286973e-05
      7200   696265.94      0.65643585     34.181013      4.21875e+08    750            5.1286973e-05
      7300   696265.94      0.64806422     34.181021      4.21875e+08    750            5.1286973e-05
      7400   696265.94      0.63978549     34.181029      4.21875e+08    750            5.1286973e-05
      7500   696265.94      0.6315985      34.181037      4.21875e+08    750            5.1286973e-05
      7600   696265.94      0.62350217     34.181045      4.21875e+08    750            5.1286973e-05
      7700   696265.94      0.61549539     34.181053      4.21875e+08    750            5.1286973e-05
      7800   696265.94      0.60757711     34.181061      4.21875e+08    750            5.1286973e-05
      7900   696265.94      0.59974627     34.181069      4.21875e+08    750            5.1286973e-05
      8000   696265.94      0.59169405     34.181076      4.21875e+08    750            5.1286973e-05
      8100   696265.94      0.58403437     34.181084      4.21875e+08    750            5.1286973e-05
      8200   696265.94      0.57645913     34.181091      4.21875e+08    750            5.1286973e-05
      8300   696265.94      0.56896733     34.181099      4.21875e+08    750            5.1286973e-05
      8400   696265.94      0.56155802     34.181107      4.21875e+08    750            5.1286973e-05
      8500   696265.94      0.55423025     34.181114      4.21875e+08    750            5.1286973e-05
      8600   696265.94      0.54698309     34.181121      4.21875e+08    750            5.1286973e-05
      8700   696265.94      0.53981561     34.181129      4.21875e+08    750            5.1286973e-05
      8800   696265.94      0.53241945     34.181136      4.21875e+08    750            5.1286973e-05
      8900   696265.94      0.525408       34.181143      4.21875e+08    750            5.1286973e-05
      9000   696265.94      0.51847359     34.18115       4.21875e+08    750            5.1286973e-05
      9100   696265.94      0.51161533     34.181157      4.21875e+08    750            5.1286973e-05
      9200   696265.94      0.50483236     34.181165      4.21875e+08    750            5.1286973e-05
      9300   696265.94      0.49812385     34.181172      4.21875e+08    750            5.1286973e-05
      9400   696265.94      0.49148895     34.181179      4.21875e+08    750            5.1286973e-05
      9500   696265.94      0.48492685     34.181186      4.21875e+08    750            5.1286973e-05
      9600   696265.94      0.47843672     34.181192      4.21875e+08    750            5.1286973e-05
      9700   696265.94      0.4717099      34.181199      4.21875e+08    750            5.1286973e-05
      9800   696265.94      0.46536073     34.181206      4.21875e+08    750            5.1286973e-05
      9900   696265.94      0.45908118     34.181213      4.21875e+08    750            5.1286973e-05
     10000   696265.94      0.45287047     34.18122       4.21875e+08    750            5.1286973e-05
Loop time of 0.247887 on 1 procs for 10000 steps with 153 atoms

95.2% CPU use with 1 MPI tasks x 1 OpenMP threads

Minimization stats:
  Stopping criterion = max force evaluations
  Energy initial, next-to-last, final = 
      1.96335850679038  0.452932236875726  0.452870467974007
  Force two-norm initial, final = 0.083777968 0.0078589946
  Force max component initial, final = 0.034202017 0.00052583522
  Final line search alpha, max atom move = 1 0.00052583522
  Iterations, force evaluations = 10000 10000

MPI task timing breakdown:
Section |  min time  |  avg time  |  max time  |%varavg| %total
---------------------------------------------------------------
Pair    | 0.035106   | 0.035106   | 0.035106   |   0.0 | 14.16
Bond    | 0.016617   | 0.016617   | 0.016617   |   0.0 |  6.70
Neigh   | 0.0018823  | 0.0018823  | 0.0018823  |   0.0 |  0.76
Comm    | 0.0025891  | 0.0025891  | 0.0025891  |   0.0 |  1.04
Output  | 0.16221    | 0.16221    | 0.16221    |   0.0 | 65.44
Modify  | 0          | 0          | 0          |   0.0 |  0.00
Other   |            | 0.02949    |            |       | 11.89

Nlocal:            153 ave         153 max         153 min
Histogram: 1 0 0 0 0 0 0 0 0 0
Nghost:              0 ave           0 max           0 min
Histogram: 1 0 0 0 0 0 0 0 0 0
Neighs:            297 ave         297 max         297 min
Histogram: 1 0 0 0 0 0 0 0 0 0

Total # of neighbors = 297
Ave neighs/atom = 1.9411765
Ave special neighs/atom = 5.9215686
Neighbor list builds = 18
Dangerous builds = 0

undump mymindump
dump mydmp all custom 100 dump.lammpstrj id x y z

# replicate 3 3 4
# fix mydeform all deform 1 x final 0.0 2500.0 y final 0.0 2500.0 z final 0.0 2500.0 units box

# compute myRDF all rdf 50
# fix 1 all ave/time 100 1 100 c_myRDF[*] file tmp.rdf mode vector
fix mynve all nve
# fix mynpt all npt temp 300.0 300.0 100.0 iso 0.0 0.0 1000.0
fix mylgv all langevin 300.0 300.0 40 1321432
neigh_modify every 1 delay 5 check yes
timestep 0.005
run 100000
Generated 0 of 11628 mixed pair_coeff terms from geometric mixing rule
Per MPI rank memory allocation (min/avg/max) = 7.393 | 7.393 | 7.393 Mbytes
   Step          Temp          PotEng         Press          Volume           Lx          Density    
     10000   696265.94      0.45287047     34.18122       4.21875e+08    750            5.1286973e-05
     10100   681578.37      0.49413443     33.460142      4.21875e+08    750            5.1286973e-05
     10200   670483.4       0.61588531     32.915423      4.21875e+08    750            5.1286973e-05
     10300   663076         0.81556084     32.551724      4.21875e+08    750            5.1286973e-05
     10400   658524.35      1.0914232      32.328211      4.21875e+08    750            5.1286973e-05
     10500   656899.56      1.4406045      32.248374      4.21875e+08    750            5.1286973e-05
     10600   658707.16      1.8613815      32.337032      4.21875e+08    750            5.1286973e-05
     10700   663247.97      2.3510756      32.55986       4.21875e+08    750            5.1286973e-05
     10800   670637.63      2.9079327      32.922537      4.21875e+08    750            5.1286973e-05
     10900   680574.95      3.5303266      33.410276      4.21875e+08    750            5.1286973e-05
     11000   692660.93      4.2158131      34.003488      4.21875e+08    750            5.1286973e-05
     11100   707564.91      4.961432       34.735036      4.21875e+08    750            5.1286973e-05
     11200   724651.5       5.7673657      35.573725      4.21875e+08    750            5.1286973e-05
     11300   744051.07      6.6300494      36.525956      4.21875e+08    750            5.1286973e-05
     11400   765438.06      7.548785       37.575748      4.21875e+08    750            5.1286973e-05
     11500   789537.57      8.5209139      38.758698      4.21875e+08    750            5.1286973e-05
     11600   814819.25      9.5447273      39.999675      4.21875e+08    750            5.1286973e-05
     11700   842519.68      10.618919      41.35939       4.21875e+08    750            5.1286973e-05
     11800   872431.65      11.740673      42.827669      4.21875e+08    750            5.1286973e-05
     11900   903461.31      12.907841      44.350811      4.21875e+08    750            5.1286973e-05
     12000   935929.62      14.117558      45.944575      4.21875e+08    750            5.1286973e-05
     12100   970187.82      15.368569      47.626204      4.21875e+08    750            5.1286973e-05
     12200   1006800.6      16.659145      49.423421      4.21875e+08    750            5.1286973e-05
     12300   1044005.1      17.986383      51.249683      4.21875e+08    750            5.1286973e-05
     12400   1083214.1      19.348843      53.174346      4.21875e+08    750            5.1286973e-05
     12500   1123611.1      20.745233      55.157327      4.21875e+08    750            5.1286973e-05
     12600   1165150        22.17278       57.196364      4.21875e+08    750            5.1286973e-05
     12700   1207748.9      23.628987      59.287434      4.21875e+08    750            5.1286973e-05
     12800   1251443.5      25.112163      61.432288      4.21875e+08    750            5.1286973e-05
     12900   1296455.1      26.620366      63.641799      4.21875e+08    750            5.1286973e-05
     13000   1342483.3      28.151728      65.901211      4.21875e+08    750            5.1286973e-05
     13100   1389309.7      29.703946      68.199806      4.21875e+08    750            5.1286973e-05
     13200   1437321.6      31.275688      70.556599      4.21875e+08    750            5.1286973e-05
     13300   1485683.4      32.865352      72.930567      4.21875e+08    750            5.1286973e-05
     13400   1534814.7      34.470418      75.342311      4.21875e+08    750            5.1286973e-05
     13500   1584986        36.090041      77.805109      4.21875e+08    750            5.1286973e-05
     13600   1635423.3      37.724258      80.280961      4.21875e+08    750            5.1286973e-05
     13700   1686870.1      39.371679      82.806372      4.21875e+08    750            5.1286973e-05
     13800   1739171.5      41.03172       85.37374       4.21875e+08    750            5.1286973e-05
     13900   1791317.9      42.703173      87.933494      4.21875e+08    750            5.1286973e-05
     14000   1844494.4      44.385554      90.543814      4.21875e+08    750            5.1286973e-05
     14100   1898884.3      46.078251      93.213707      4.21875e+08    750            5.1286973e-05
     14200   1952721.9      47.782227      95.856483      4.21875e+08    750            5.1286973e-05
     14300   2007686.1      49.495863      98.554568      4.21875e+08    750            5.1286973e-05
     14400   2063077        51.218332      101.2736       4.21875e+08    750            5.1286973e-05
     14500   2118597.2      52.94859       103.99898      4.21875e+08    750            5.1286973e-05
     14600   2173358        54.686072      106.68707      4.21875e+08    750            5.1286973e-05
     14700   2229786.6      56.431031      109.45704      4.21875e+08    750            5.1286973e-05
     14800   2285717.6      58.182747      112.20258      4.21875e+08    750            5.1286973e-05
     14900   2341842.3      59.940357      114.95764      4.21875e+08    750            5.1286973e-05
     15000   2398612.3      61.70347       117.74437      4.21875e+08    750            5.1286973e-05
     15100   2455131.4      63.471612      120.51879      4.21875e+08    750            5.1286973e-05
     15200   2511993.8      65.244167      123.31005      4.21875e+08    750            5.1286973e-05
     15300   2569363.5      67.081813      126.12623      4.21875e+08    750            5.1286973e-05
     15400   2626115.9      68.861794      128.9121       4.21875e+08    750            5.1286973e-05
     15500   2682464.9      70.643387      131.67817      4.21875e+08    750            5.1286973e-05
     15600   2739229.6      72.424749      134.46464      4.21875e+08    750            5.1286973e-05
     15700   2796182.4      74.202982      137.26034      4.21875e+08    750            5.1286973e-05
     15800   2852905.5      75.980192      140.04478      4.21875e+08    750            5.1286973e-05
     15900   2910465.5      77.753565      142.8703       4.21875e+08    750            5.1286973e-05
     16000   2967338.1      79.520548      145.66207      4.21875e+08    750            5.1286973e-05
     16100   3024435.5      81.277634      148.46488      4.21875e+08    750            5.1286973e-05
     16200   3081484.4      83.018798      151.26531      4.21875e+08    750            5.1286973e-05
     16300   3137913.8      84.742447      154.03533      4.21875e+08    750            5.1286973e-05
     16400   3194289.3      86.453764      156.80271      4.21875e+08    750            5.1286973e-05
     16500   3250634        88.154666      159.56858      4.21875e+08    750            5.1286973e-05
     16600   3306313.3      89.847428      162.30178      4.21875e+08    750            5.1286973e-05
     16700   3362089.2      91.472511      165.03971      4.21875e+08    750            5.1286973e-05
     16800   3418371.7      93.152303      167.80253      4.21875e+08    750            5.1286973e-05
     16900   3474121.5      94.824301      170.53919      4.21875e+08    750            5.1286973e-05
     17000   3529763.7      96.489064      173.27058      4.21875e+08    750            5.1286973e-05
     17100   3584343.4      98.146473      175.9498       4.21875e+08    750            5.1286973e-05
     17200   3639351        99.856656      178.65005      4.21875e+08    750            5.1286973e-05
     17300   3694023.2      101.49831      181.33382      4.21875e+08    750            5.1286973e-05
     17400   3747456.3      103.13037      183.95676      4.21875e+08    750            5.1286973e-05
     17500   3801137.5      104.75052      186.59188      4.21875e+08    750            5.1286973e-05
     17600   3854183        106.36248      189.1958       4.21875e+08    750            5.1286973e-05
     17700   3906560.7      107.96442      191.76693      4.21875e+08    750            5.1286973e-05
     17800   3960007.1      109.55485      194.39053      4.21875e+08    750            5.1286973e-05
     17900   4012770        111.13451      196.98058      4.21875e+08    750            5.1286973e-05
     18000   4064714.5      112.70303      199.53046      4.21875e+08    750            5.1286973e-05
     18100   4117257        114.25878      202.10969      4.21875e+08    750            5.1286973e-05
     18200   4167796.8      115.80351      204.5906       4.21875e+08    750            5.1286973e-05
     18300   4217903        117.33556      207.05024      4.21875e+08    750            5.1286973e-05
     18400   4267569.9      118.85404      209.48831      4.21875e+08    750            5.1286973e-05
     18500   4317905.5      120.36063      211.9592       4.21875e+08    750            5.1286973e-05
     18600   4367918.4      121.85688      214.41426      4.21875e+08    750            5.1286973e-05
     18700   4417893.6      123.34072      216.86747      4.21875e+08    750            5.1286973e-05
     18800   4466254.2      124.81103      219.24142      4.21875e+08    750            5.1286973e-05
     18900   4513958.8      126.26805      221.58316      4.21875e+08    750            5.1286973e-05
     19000   4561679.6      127.71086      223.9257       4.21875e+08    750            5.1286973e-05
     19100   4609750.6      129.14048      226.28544      4.21875e+08    750            5.1286973e-05
     19200   4656602.6      130.55681      228.58533      4.21875e+08    750            5.1286973e-05
     19300   4703234.5      131.95782      230.87442      4.21875e+08    750            5.1286973e-05
     19400   4749401.4      133.34587      233.14069      4.21875e+08    750            5.1286973e-05
     19500   4793899.5      134.71982      235.32503      4.21875e+08    750            5.1286973e-05
     19600   4838739.1      136.07795      237.52614      4.21875e+08    750            5.1286973e-05
     19700   4883793        137.42008      239.73777      4.21875e+08    750            5.1286973e-05
     19800   4928505.3      138.7491       241.93263      4.21875e+08    750            5.1286973e-05
     19900   4971133.2      140.06235      244.02517      4.21875e+08    750            5.1286973e-05
     20000   5014609.3      141.36036      246.15935      4.21875e+08    750            5.1286973e-05
     20100   5058500.9      142.64266      248.31393      4.21875e+08    750            5.1286973e-05
     20200   5101417.3      143.90965      250.42064      4.21875e+08    750            5.1286973e-05
     20300   5143976.1      145.16186      252.5098       4.21875e+08    750            5.1286973e-05
     20400   5185555.2      146.39779      254.55086      4.21875e+08    750            5.1286973e-05
     20500   5226296.7      147.61737      256.55081      4.21875e+08    750            5.1286973e-05
     20600   5266349.7      148.81985      258.51695      4.21875e+08    750            5.1286973e-05
     20700   5307004.2      150.00502      260.51263      4.21875e+08    750            5.1286973e-05
     20800   5346207.4      151.17326      262.43706      4.21875e+08    750            5.1286973e-05
     20900   5384229.3      152.32377      264.3035       4.21875e+08    750            5.1286973e-05
     21000   5422268.5      153.4555       266.1708       4.21875e+08    750            5.1286973e-05
     21100   5460893.5      154.56922      268.06685      4.21875e+08    750            5.1286973e-05
     21200   5498485.9      155.6654       269.91221      4.21875e+08    750            5.1286973e-05
     21300   5535461.5      156.74106      271.7273       4.21875e+08    750            5.1286973e-05
     21400   5572230        157.8631       273.53223      4.21875e+08    750            5.1286973e-05
     21500   5608749.9      158.90585      275.32495      4.21875e+08    750            5.1286973e-05
     21600   5643906.3      159.93087      277.05074      4.21875e+08    750            5.1286973e-05
     21700   5677804.8      160.93855      278.71477      4.21875e+08    750            5.1286973e-05
     21800   5711163.6      161.93028      280.35231      4.21875e+08    750            5.1286973e-05
     21900   5745263.8      162.90468      282.02625      4.21875e+08    750            5.1286973e-05
     22000   5779320        163.86022      283.69803      4.21875e+08    750            5.1286973e-05
     22100   5812156.2      164.79784      285.30992      4.21875e+08    750            5.1286973e-05
     22200   5844149.3      165.71818      286.88043      4.21875e+08    750            5.1286973e-05
     22300   5876236.1      166.6231       288.45554      4.21875e+08    750            5.1286973e-05
     22400   5908190.2      167.51116      290.02413      4.21875e+08    750            5.1286973e-05
     22500   5940235.6      168.38127      291.59721      4.21875e+08    750            5.1286973e-05
     22600   5971699.3      169.23489      293.14174      4.21875e+08    750            5.1286973e-05
     22700   6002669.9      170.07276      294.66206      4.21875e+08    750            5.1286973e-05
     22800   6032442.9      170.89625      296.12358      4.21875e+08    750            5.1286973e-05
     22900   6061347.6      171.70329      297.54249      4.21875e+08    750            5.1286973e-05
     23000   6089710.7      172.49429      298.9348       4.21875e+08    750            5.1286973e-05
     23100   6117246.5      173.26747      300.28651      4.21875e+08    750            5.1286973e-05
     23200   6144531.9      174.08641      301.62593      4.21875e+08    750            5.1286973e-05
     23300   6170842.9      174.82857      302.91751      4.21875e+08    750            5.1286973e-05
     23400   6197124.1      175.55596      304.20762      4.21875e+08    750            5.1286973e-05
     23500   6223588.7      176.2659       305.50675      4.21875e+08    750            5.1286973e-05
     23600   6249349.3      176.95988      306.77132      4.21875e+08    750            5.1286973e-05
     23700   6275429.1      177.63944      308.05156      4.21875e+08    750            5.1286973e-05
     23800   6298565.4      178.30304      309.18729      4.21875e+08    750            5.1286973e-05
     23900   6323224.1      178.95048      310.39777      4.21875e+08    750            5.1286973e-05
     24000   6347626.5      179.58014      311.59567      4.21875e+08    750            5.1286973e-05
     24100   6372059.5      180.19425      312.79507      4.21875e+08    750            5.1286973e-05
     24200   6395408.7      180.79131      313.94127      4.21875e+08    750            5.1286973e-05
     24300   6417481.2      181.37243      315.02479      4.21875e+08    750            5.1286973e-05
     24400   6440007.9      181.93836      316.13061      4.21875e+08    750            5.1286973e-05
     24500   6462169.7      182.48742      317.21852      4.21875e+08    750            5.1286973e-05
     24600   6485180.6      183.01816      318.34812      4.21875e+08    750            5.1286973e-05
     24700   6506554.8      183.53283      319.39737      4.21875e+08    750            5.1286973e-05
     24800   6526984.6      184.03301      320.40026      4.21875e+08    750            5.1286973e-05
     24900   6546683.5      184.51862      321.36727      4.21875e+08    750            5.1286973e-05
     25000   6567188.3      184.98772      322.37385      4.21875e+08    750            5.1286973e-05
     25100   6587719.5      185.44324      323.38172      4.21875e+08    750            5.1286973e-05
     25200   6606742.8      185.88785      324.31557      4.21875e+08    750            5.1286973e-05
     25300   6623736.4      186.31896      325.14977      4.21875e+08    750            5.1286973e-05
     25400   6641865.7      186.73469      326.03973      4.21875e+08    750            5.1286973e-05
     25500   6658785        187.13591      326.8703       4.21875e+08    750            5.1286973e-05
     25600   6674725.8      187.52216      327.65282      4.21875e+08    750            5.1286973e-05
     25700   6691691.7      187.89416      328.48568      4.21875e+08    750            5.1286973e-05
     25800   6708194.4      188.25113      329.29579      4.21875e+08    750            5.1286973e-05
     25900   6723549.2      188.5949       330.04956      4.21875e+08    750            5.1286973e-05
     26000   6739628.1      188.92381      330.83888      4.21875e+08    750            5.1286973e-05
     26100   6755295.7      189.23824      331.608        4.21875e+08    750            5.1286973e-05
     26200   6768801.4      189.53871      332.27099      4.21875e+08    750            5.1286973e-05
     26300   6783859.5      189.8261       333.0102       4.21875e+08    750            5.1286973e-05
     26400   6798281.2      190.10077      333.71816      4.21875e+08    750            5.1286973e-05
     26500   6812489.9      190.36332      334.41568      4.21875e+08    750            5.1286973e-05
     26600   6825522.2      190.61052      335.05544      4.21875e+08    750            5.1286973e-05
     26700   6838061.8      190.84503      335.67101      4.21875e+08    750            5.1286973e-05
     26800   6850707.9      191.06672      336.29181      4.21875e+08    750            5.1286973e-05
     26900   6863817.1      191.27546      336.93535      4.21875e+08    750            5.1286973e-05
     27000   6876241.5      191.47114      337.54528      4.21875e+08    750            5.1286973e-05
     27100   6887821.8      191.65452      338.11376      4.21875e+08    750            5.1286973e-05
     27200   6898908.4      191.8242       338.65801      4.21875e+08    750            5.1286973e-05
     27300   6909064.5      191.9826       339.15658      4.21875e+08    750            5.1286973e-05
     27400   6920035.2      192.12909      339.69515      4.21875e+08    750            5.1286973e-05
     27500   6929904.9      192.26338      340.17966      4.21875e+08    750            5.1286973e-05
     27600   6940422.6      192.38451      340.69599      4.21875e+08    750            5.1286973e-05
     27700   6949597.6      192.4946       341.1464       4.21875e+08    750            5.1286973e-05
     27800   6959364.4      192.59103      341.62587      4.21875e+08    750            5.1286973e-05
     27900   6968506.6      192.67405      342.07468      4.21875e+08    750            5.1286973e-05
     28000   6977805.9      192.74594      342.5312       4.21875e+08    750            5.1286973e-05
     28100   6986022.6      192.80822      342.93457      4.21875e+08    750            5.1286973e-05
     28200   6993547.3      192.85702      343.30398      4.21875e+08    750            5.1286973e-05
     28300   7000374.2      192.89362      343.63912      4.21875e+08    750            5.1286973e-05
     28400   7007975.6      192.91782      344.01229      4.21875e+08    750            5.1286973e-05
     28500   7014493.5      192.93089      344.33228      4.21875e+08    750            5.1286973e-05
     28600   7022832.1      192.93267      344.74164      4.21875e+08    750            5.1286973e-05
     28700   7029975.5      192.92604      345.09234      4.21875e+08    750            5.1286973e-05
     28800   7036461.6      192.90967      345.41076      4.21875e+08    750            5.1286973e-05
     28900   7042740.5      192.88011      345.71901      4.21875e+08    750            5.1286973e-05
     29000   7048644        192.84234      346.00884      4.21875e+08    750            5.1286973e-05
     29100   7053669.4      192.79752      346.25556      4.21875e+08    750            5.1286973e-05
     29200   7058913.8      192.74608      346.51303      4.21875e+08    750            5.1286973e-05
     29300   7064414.7      192.6846       346.78309      4.21875e+08    750            5.1286973e-05
     29400   7069181.2      192.61329      347.0171       4.21875e+08    750            5.1286973e-05
     29500   7073636.4      192.53185      347.23584      4.21875e+08    750            5.1286973e-05
     29600   7077525.7      192.44289      347.42679      4.21875e+08    750            5.1286973e-05
     29700   7080846.4      192.34714      347.58982      4.21875e+08    750            5.1286973e-05
     29800   7083641.9      192.24716      347.72708      4.21875e+08    750            5.1286973e-05
     29900   7085656.6      192.14017      347.826        4.21875e+08    750            5.1286973e-05
     30000   7088278.5      192.02484      347.95473      4.21875e+08    750            5.1286973e-05
     30100   7091357.1      191.89878      348.10588      4.21875e+08    750            5.1286973e-05
     30200   7092941.5      191.76317      348.18368      4.21875e+08    750            5.1286973e-05
     30300   7094418.5      191.61774      348.25622      4.21875e+08    750            5.1286973e-05
     30400   7096308.6      191.46486      348.34902      4.21875e+08    750            5.1286973e-05
     30500   7097778.1      191.30086      348.42119      4.21875e+08    750            5.1286973e-05
     30600   7097886.7      191.12733      348.42655      4.21875e+08    750            5.1286973e-05
     30700   7098920.8      190.9443       348.47734      4.21875e+08    750            5.1286973e-05
     30800   7099903        190.75262      348.52558      4.21875e+08    750            5.1286973e-05
     30900   7100787        190.55279      348.56901      4.21875e+08    750            5.1286973e-05
     31000   7100590.6      190.34788      348.55939      4.21875e+08    750            5.1286973e-05
     31100   7100878.8      190.13608      348.57357      4.21875e+08    750            5.1286973e-05
     31200   7101759.3      189.91738      348.61683      4.21875e+08    750            5.1286973e-05
     31300   7102343.6      189.69117      348.64555      4.21875e+08    750            5.1286973e-05
     31400   7100921.6      189.45663      348.57577      4.21875e+08    750            5.1286973e-05
     31500   7099428.8      189.21559      348.50251      4.21875e+08    750            5.1286973e-05
     31600   7098348.2      188.96717      348.4495       4.21875e+08    750            5.1286973e-05
     31700   7098700        188.71141      348.46681      4.21875e+08    750            5.1286973e-05
     31800   7098147.9      188.44849      348.43974      4.21875e+08    750            5.1286973e-05
     31900   7096329.1      188.18         348.35049      4.21875e+08    750            5.1286973e-05
     32000   7094743.8      187.90291      348.2727       4.21875e+08    750            5.1286973e-05
     32100   7093142.4      187.61924      348.19412      4.21875e+08    750            5.1286973e-05
     32200   7090832        187.32815      348.08073      4.21875e+08    750            5.1286973e-05
     32300   7088700.9      187.03109      347.97615      4.21875e+08    750            5.1286973e-05
     32400   7086519.1      186.72647      347.86909      4.21875e+08    750            5.1286973e-05
     32500   7084165.7      186.41502      347.75359      4.21875e+08    750            5.1286973e-05
     32600   7082441.2      186.09592      347.66898      4.21875e+08    750            5.1286973e-05
     32700   7079319.5      185.76901      347.51577      4.21875e+08    750            5.1286973e-05
     32800   7075902        185.43573      347.34804      4.21875e+08    750            5.1286973e-05
     32900   7072916.8      185.09613      347.20153      4.21875e+08    750            5.1286973e-05
     33000   7069284.1      184.74733      347.02324      4.21875e+08    750            5.1286973e-05
     33100   7065154.1      184.38962      346.82054      4.21875e+08    750            5.1286973e-05
     33200   7060699.3      184.02735      346.60189      4.21875e+08    750            5.1286973e-05
     33300   7055779.1      183.66073      346.36039      4.21875e+08    750            5.1286973e-05
     33400   7051127.8      183.28923      346.1321       4.21875e+08    750            5.1286973e-05
     33500   7046611.1      182.91206      345.91041      4.21875e+08    750            5.1286973e-05
     33600   7042339.3      182.53156      345.70075      4.21875e+08    750            5.1286973e-05
     33700   7037901.1      182.14709      345.48292      4.21875e+08    750            5.1286973e-05
     33800   7033248.4      181.76016      345.25456      4.21875e+08    750            5.1286973e-05
     33900   7028506.6      181.36866      345.02182      4.21875e+08    750            5.1286973e-05
     34000   7023050.3      180.97022      344.75401      4.21875e+08    750            5.1286973e-05
     34100   7018187        180.56458      344.51532      4.21875e+08    750            5.1286973e-05
     34200   7011971        180.15274      344.21021      4.21875e+08    750            5.1286973e-05
     34300   7007271.8      179.73755      343.97957      4.21875e+08    750            5.1286973e-05
     34400   7000198.4      179.31719      343.63237      4.21875e+08    750            5.1286973e-05
     34500   6993074        178.89146      343.28267      4.21875e+08    750            5.1286973e-05
     34600   6986694.9      178.4627       342.96956      4.21875e+08    750            5.1286973e-05
     34700   6979906.8      178.03029      342.63637      4.21875e+08    750            5.1286973e-05
     34800   6973534.6      177.59609      342.3236       4.21875e+08    750            5.1286973e-05
     34900   6966150.7      177.159        341.96116      4.21875e+08    750            5.1286973e-05
     35000   6959173.2      176.71921      341.61868      4.21875e+08    750            5.1286973e-05
     35100   6952065.9      176.27696      341.26982      4.21875e+08    750            5.1286973e-05
     35200   6945352.9      175.8291       340.94032      4.21875e+08    750            5.1286973e-05
     35300   6937734.5      175.37722      340.56637      4.21875e+08    750            5.1286973e-05
     35400   6930954.3      174.92017      340.23357      4.21875e+08    750            5.1286973e-05
     35500   6924100.1      174.45957      339.89715      4.21875e+08    750            5.1286973e-05
     35600   6917132.7      173.99612      339.55516      4.21875e+08    750            5.1286973e-05
     35700   6909079.5      173.52888      339.15987      4.21875e+08    750            5.1286973e-05
     35800   6902158.1      173.0584       338.82014      4.21875e+08    750            5.1286973e-05
     35900   6894182.4      172.58327      338.42865      4.21875e+08    750            5.1286973e-05
     36000   6886715.5      172.10441      338.06215      4.21875e+08    750            5.1286973e-05
     36100   6878835.8      171.62303      337.67538      4.21875e+08    750            5.1286973e-05
     36200   6869788.4      171.13923      337.23128      4.21875e+08    750            5.1286973e-05
     36300   6861633.4      170.65208      336.83099      4.21875e+08    750            5.1286973e-05
     36400   6852583.4      170.16028      336.38677      4.21875e+08    750            5.1286973e-05
     36500   6843227        169.66352      335.9275       4.21875e+08    750            5.1286973e-05
     36600   6833975.8      169.16485      335.4734       4.21875e+08    750            5.1286973e-05
     36700   6825334.9      168.66524      335.04926      4.21875e+08    750            5.1286973e-05
     36800   6817120.5      168.16127      334.64606      4.21875e+08    750            5.1286973e-05
     36900   6808781.2      167.65608      334.23673      4.21875e+08    750            5.1286973e-05
     37000   6800670.6      167.14839      333.83863      4.21875e+08    750            5.1286973e-05
     37100   6790498.7      166.63792      333.33933      4.21875e+08    750            5.1286973e-05
     37200   6781025        166.06382      332.8743       4.21875e+08    750            5.1286973e-05
     37300   6769913.4      165.54952      332.32887      4.21875e+08    750            5.1286973e-05
     37400   6759662.1      165.03393      331.82567      4.21875e+08    750            5.1286973e-05
     37500   6750110.8      164.51549      331.35684      4.21875e+08    750            5.1286973e-05
     37600   6740193.1      163.99244      330.87002      4.21875e+08    750            5.1286973e-05
     37700   6730221.2      163.46663      330.38054      4.21875e+08    750            5.1286973e-05
     37800   6719659        162.93946      329.86209      4.21875e+08    750            5.1286973e-05
     37900   6709256.1      162.41014      329.35145      4.21875e+08    750            5.1286973e-05
     38000   6700185.3      161.87845      328.90621      4.21875e+08    750            5.1286973e-05
     38100   6691063.6      161.34428      328.45847      4.21875e+08    750            5.1286973e-05
     38200   6680842.2      160.80698      327.95675      4.21875e+08    750            5.1286973e-05
     38300   6671094.5      160.26896      327.47828      4.21875e+08    750            5.1286973e-05
     38400   6661799.1      159.72976      327.02201      4.21875e+08    750            5.1286973e-05
     38500   6650750.3      159.18971      326.47966      4.21875e+08    750            5.1286973e-05
     38600   6639869.6      158.64772      325.94558      4.21875e+08    750            5.1286973e-05
     38700   6629717.7      158.10168      325.44726      4.21875e+08    750            5.1286973e-05
     38800   6618575        157.55528      324.90031      4.21875e+08    750            5.1286973e-05
     38900   6609017.6      157.00897      324.43118      4.21875e+08    750            5.1286973e-05
     39000   6598838.4      156.4615       323.93153      4.21875e+08    750            5.1286973e-05
     39100   6587791.5      155.91297      323.38928      4.21875e+08    750            5.1286973e-05
     39200   6577157.6      155.36209      322.86731      4.21875e+08    750            5.1286973e-05
     39300   6566147        154.81165      322.32684      4.21875e+08    750            5.1286973e-05
     39400   6555044.6      154.25979      321.78186      4.21875e+08    750            5.1286973e-05
     39500   6543364.6      153.70595      321.20853      4.21875e+08    750            5.1286973e-05
     39600   6532159.8      153.15247      320.65853      4.21875e+08    750            5.1286973e-05
     39700   6521396        152.59756      320.13018      4.21875e+08    750            5.1286973e-05
     39800   6509781.1      152.04296      319.56005      4.21875e+08    750            5.1286973e-05
     39900   6498008.3      151.48887      318.98216      4.21875e+08    750            5.1286973e-05
     40000   6486882.2      150.93446      318.43602      4.21875e+08    750            5.1286973e-05
     40100   6474895.4      150.3781       317.84763      4.21875e+08    750            5.1286973e-05
     40200   6463199.9      149.82218      317.27354      4.21875e+08    750            5.1286973e-05
     40300   6452339.8      149.26953      316.74046      4.21875e+08    750            5.1286973e-05
     40400   6439972.4      148.71734      316.13338      4.21875e+08    750            5.1286973e-05
     40500   6427946.9      148.16617      315.54309      4.21875e+08    750            5.1286973e-05
     40600   6415989.1      147.61392      314.95612      4.21875e+08    750            5.1286973e-05
     40700   6404602.9      147.06214      314.39721      4.21875e+08    750            5.1286973e-05
     40800   6392736.5      146.50955      313.81473      4.21875e+08    750            5.1286973e-05
     40900   6380328.5      145.95852      313.20565      4.21875e+08    750            5.1286973e-05
     41000   6368550.4      145.40821      312.62751      4.21875e+08    750            5.1286973e-05
     41100   6356377.3      144.8587       312.02997      4.21875e+08    750            5.1286973e-05
     41200   6345924        144.30786      311.51686      4.21875e+08    750            5.1286973e-05
     41300   6333739.1      143.75497      310.91874      4.21875e+08    750            5.1286973e-05
     41400   6322556.9      143.19962      310.36984      4.21875e+08    750            5.1286973e-05
     41500   6310200.3      142.64383      309.7633       4.21875e+08    750            5.1286973e-05
     41600   6298240.7      142.08771      309.17624      4.21875e+08    750            5.1286973e-05
     41700   6286710.2      141.53377      308.61025      4.21875e+08    750            5.1286973e-05
     41800   6275288.2      140.97958      308.04958      4.21875e+08    750            5.1286973e-05
     41900   6263418.5      140.42411      307.46694      4.21875e+08    750            5.1286973e-05
     42000   6249993.3      139.86817      306.80792      4.21875e+08    750            5.1286973e-05
     42100   6237395.7      139.31116      306.18955      4.21875e+08    750            5.1286973e-05
     42200   6223175.9      138.75394      305.49153      4.21875e+08    750            5.1286973e-05
     42300   6210841.9      138.19856      304.88609      4.21875e+08    750            5.1286973e-05
     42400   6198170.1      137.6425       304.26406      4.21875e+08    750            5.1286973e-05
     42500   6185946.8      137.08712      303.66406      4.21875e+08    750            5.1286973e-05
     42600   6172755.4      136.52991      303.01653      4.21875e+08    750            5.1286973e-05
     42700   6160496.1      135.97174      302.41476      4.21875e+08    750            5.1286973e-05
     42800   6148734.1      135.41149      301.8374       4.21875e+08    750            5.1286973e-05
     42900   6134955.1      134.85041      301.16102      4.21875e+08    750            5.1286973e-05
     43000   6122325.8      134.29093      300.54109      4.21875e+08    750            5.1286973e-05
     43100   6109129.5      133.73196      299.89331      4.21875e+08    750            5.1286973e-05
     43200   6095159.3      133.17305      299.20755      4.21875e+08    750            5.1286973e-05
     43300   6082083        132.61397      298.56567      4.21875e+08    750            5.1286973e-05
     43400   6069557.4      132.05663      297.95083      4.21875e+08    750            5.1286973e-05
     43500   6057369        131.49768      297.35253      4.21875e+08    750            5.1286973e-05
     43600   6043905.6      130.93863      296.69165      4.21875e+08    750            5.1286973e-05
     43700   6031634.8      130.37994      296.08931      4.21875e+08    750            5.1286973e-05
     43800   6019169.8      129.82152      295.47744      4.21875e+08    750            5.1286973e-05
     43900   6005672        129.2599       294.81487      4.21875e+08    750            5.1286973e-05
     44000   5992845.1      128.69815      294.18523      4.21875e+08    750            5.1286973e-05
     44100   5980051.2      128.13828      293.55721      4.21875e+08    750            5.1286973e-05
     44200   5967590.2      127.5774       292.94554      4.21875e+08    750            5.1286973e-05
     44300   5955396.5      127.01569      292.34699      4.21875e+08    750            5.1286973e-05
     44400   5941370.2      126.45453      291.65847      4.21875e+08    750            5.1286973e-05
     44500   5928880        125.89458      291.04536      4.21875e+08    750            5.1286973e-05
     44600   5916792.2      125.33568      290.45201      4.21875e+08    750            5.1286973e-05
     44700   5903179.4      124.77762      289.78379      4.21875e+08    750            5.1286973e-05
     44800   5889860.7      124.22091      289.13001      4.21875e+08    750            5.1286973e-05
     44900   5876769.1      123.66633      288.48737      4.21875e+08    750            5.1286973e-05
     45000   5864700.7      123.11346      287.89497      4.21875e+08    750            5.1286973e-05
     45100   5851605.8      122.56158      287.25218      4.21875e+08    750            5.1286973e-05
     45200   5839261.2      122.01037      286.64622      4.21875e+08    750            5.1286973e-05
     45300   5825559.7      121.45924      285.97364      4.21875e+08    750            5.1286973e-05
     45400   5812809.2      120.90911      285.34775      4.21875e+08    750            5.1286973e-05
     45500   5799306.6      120.36079      284.68494      4.21875e+08    750            5.1286973e-05
     45600   5787200.7      119.81255      284.0907       4.21875e+08    750            5.1286973e-05
     45700   5774587        119.26445      283.47152      4.21875e+08    750            5.1286973e-05
     45800   5761699.7      118.71752      282.83892      4.21875e+08    750            5.1286973e-05
     45900   5748383.7      118.17088      282.18527      4.21875e+08    750            5.1286973e-05
     46000   5734482.2      117.62311      281.50287      4.21875e+08    750            5.1286973e-05
     46100   5722309.5      117.07562      280.90535      4.21875e+08    750            5.1286973e-05
     46200   5709124        116.52881      280.2581       4.21875e+08    750            5.1286973e-05
     46300   5696534.3      115.98332      279.64011      4.21875e+08    750            5.1286973e-05
     46400   5683600.1      115.43785      279.0052       4.21875e+08    750            5.1286973e-05
     46500   5669931.5      114.89317      278.33424      4.21875e+08    750            5.1286973e-05
     46600   5657591.6      114.34915      277.72851      4.21875e+08    750            5.1286973e-05
     46700   5644935        113.80607      277.10723      4.21875e+08    750            5.1286973e-05
     46800   5631289.5      113.26192      276.4374       4.21875e+08    750            5.1286973e-05
     46900   5618586.2      112.71741      275.81383      4.21875e+08    750            5.1286973e-05
     47000   5605985.8      112.17347      275.19531      4.21875e+08    750            5.1286973e-05
     47100   5591783.5      111.56876      274.49813      4.21875e+08    750            5.1286973e-05
     47200   5577942.8      111.02685      273.81872      4.21875e+08    750            5.1286973e-05
     47300   5565633.3      110.48892      273.21448      4.21875e+08    750            5.1286973e-05
     47400   5551213.4      109.95403      272.50663      4.21875e+08    750            5.1286973e-05
     47500   5538466.4      109.41926      271.88092      4.21875e+08    750            5.1286973e-05
     47600   5525872.6      108.88437      271.26272      4.21875e+08    750            5.1286973e-05
     47700   5513177        108.35168      270.63952      4.21875e+08    750            5.1286973e-05
     47800   5498798.6      107.82062      269.93371      4.21875e+08    750            5.1286973e-05
     47900   5486637.4      107.28992      269.33675      4.21875e+08    750            5.1286973e-05
     48000   5473738.7      106.75841      268.70358      4.21875e+08    750            5.1286973e-05
     48100   5461010.9      106.22886      268.0788       4.21875e+08    750            5.1286973e-05
     48200   5448296.5      105.69926      267.45468      4.21875e+08    750            5.1286973e-05
     48300   5435789.1      105.16989      266.84073      4.21875e+08    750            5.1286973e-05
     48400   5422426.5      104.63985      266.18478      4.21875e+08    750            5.1286973e-05
     48500   5409075.7      104.11122      265.52942      4.21875e+08    750            5.1286973e-05
     48600   5395597.9      103.58233      264.86782      4.21875e+08    750            5.1286973e-05
     48700   5382935.8      103.05349      264.24627      4.21875e+08    750            5.1286973e-05
     48800   5370042.3      102.52601      263.61335      4.21875e+08    750            5.1286973e-05
     48900   5355977.2      102.00186      262.92292      4.21875e+08    750            5.1286973e-05
     49000   5342909.3      101.48074      262.28145      4.21875e+08    750            5.1286973e-05
     49100   5328903.8      100.96078      261.59394      4.21875e+08    750            5.1286973e-05
     49200   5316613.3      100.44356      260.99063      4.21875e+08    750            5.1286973e-05
     49300   5305046.4      99.928635      260.42284      4.21875e+08    750            5.1286973e-05
     49400   5292543.9      99.413312      259.80912      4.21875e+08    750            5.1286973e-05
     49500   5278711        98.897645      259.13009      4.21875e+08    750            5.1286973e-05
     49600   5266098.3      98.382383      258.51096      4.21875e+08    750            5.1286973e-05
     49700   5253813        97.868515      257.9079       4.21875e+08    750            5.1286973e-05
     49800   5239940.5      97.357485      257.22693      4.21875e+08    750            5.1286973e-05
     49900   5227366.1      96.846814      256.60967      4.21875e+08    750            5.1286973e-05
     50000   5214336.8      96.338385      255.97009      4.21875e+08    750            5.1286973e-05
     50100   5202191        95.829825      255.37388      4.21875e+08    750            5.1286973e-05
     50200   5188324.1      95.322474      254.69318      4.21875e+08    750            5.1286973e-05
     50300   5175618.5      94.813852      254.06949      4.21875e+08    750            5.1286973e-05
     50400   5162362.1      94.306585      253.41875      4.21875e+08    750            5.1286973e-05
     50500   5148137.6      93.7996        252.72049      4.21875e+08    750            5.1286973e-05
     50600   5135057.1      93.293036      252.07839      4.21875e+08    750            5.1286973e-05
     50700   5122674        92.786717      251.47053      4.21875e+08    750            5.1286973e-05
     50800   5109392        92.280786      250.81854      4.21875e+08    750            5.1286973e-05
     50900   5095674        91.775142      250.14515      4.21875e+08    750            5.1286973e-05
     51000   5083519.8      91.270371      249.54852      4.21875e+08    750            5.1286973e-05
     51100   5070111        90.76627       248.89031      4.21875e+08    750            5.1286973e-05
     51200   5056635.6      90.262901      248.22882      4.21875e+08    750            5.1286973e-05
     51300   5043207.5      89.760433      247.56966      4.21875e+08    750            5.1286973e-05
     51400   5030657        89.259046      246.95357      4.21875e+08    750            5.1286973e-05
     51500   5016737        88.758593      246.27026      4.21875e+08    750            5.1286973e-05
     51600   5004330.6      88.260284      245.66126      4.21875e+08    750            5.1286973e-05
     51700   4991277.4      87.765317      245.02049      4.21875e+08    750            5.1286973e-05
     51800   4977893.3      87.272009      244.36349      4.21875e+08    750            5.1286973e-05
     51900   4965267.8      86.779932      243.74372      4.21875e+08    750            5.1286973e-05
     52000   4953006.6      86.287837      243.14184      4.21875e+08    750            5.1286973e-05
     52100   4940344.7      85.796241      242.52029      4.21875e+08    750            5.1286973e-05
     52200   4928302.7      85.306514      241.92918      4.21875e+08    750            5.1286973e-05
     52300   4916148.1      84.756361      241.33252      4.21875e+08    750            5.1286973e-05
     52400   4903571.7      84.269126      240.71517      4.21875e+08    750            5.1286973e-05
     52500   4891276.5      83.784027      240.11162      4.21875e+08    750            5.1286973e-05
     52600   4877995.3      83.300331      239.45966      4.21875e+08    750            5.1286973e-05
     52700   4865320.6      82.819467      238.83748      4.21875e+08    750            5.1286973e-05
     52800   4852286        82.339953      238.19763      4.21875e+08    750            5.1286973e-05
     52900   4839302.6      81.861144      237.56029      4.21875e+08    750            5.1286973e-05
     53000   4826588.4      81.383395      236.93617      4.21875e+08    750            5.1286973e-05
     53100   4814571.4      80.90959       236.34627      4.21875e+08    750            5.1286973e-05
     53200   4802542        80.437379      235.75577      4.21875e+08    750            5.1286973e-05
     53300   4790196.8      79.96495       235.14976      4.21875e+08    750            5.1286973e-05
     53400   4778651.2      79.493531      234.58301      4.21875e+08    750            5.1286973e-05
     53500   4765959.2      79.022214      233.95998      4.21875e+08    750            5.1286973e-05
     53600   4753354.3      78.551175      233.34122      4.21875e+08    750            5.1286973e-05
     53700   4740629.5      78.0808        232.71657      4.21875e+08    750            5.1286973e-05
     53800   4727712.7      77.610725      232.0825       4.21875e+08    750            5.1286973e-05
     53900   4716293        77.140795      231.52193      4.21875e+08    750            5.1286973e-05
     54000   4702804.7      76.673145      230.8598       4.21875e+08    750            5.1286973e-05
     54100   4690662.4      76.207117      230.26375      4.21875e+08    750            5.1286973e-05
     54200   4677995.3      75.743723      229.64194      4.21875e+08    750            5.1286973e-05
     54300   4666111.5      75.281641      229.05858      4.21875e+08    750            5.1286973e-05
     54400   4653313.5      74.821276      228.43034      4.21875e+08    750            5.1286973e-05
     54500   4641146.6      74.360915      227.83308      4.21875e+08    750            5.1286973e-05
     54600   4628386.5      73.900936      227.20671      4.21875e+08    750            5.1286973e-05
     54700   4616182.7      73.443912      226.60764      4.21875e+08    750            5.1286973e-05
     54800   4603783.7      72.987466      225.99898      4.21875e+08    750            5.1286973e-05
     54900   4592464.7      72.531802      225.44335      4.21875e+08    750            5.1286973e-05
     55000   4580599.9      72.077193      224.86092      4.21875e+08    750            5.1286973e-05
     55100   4569425.5      71.6214        224.31239      4.21875e+08    750            5.1286973e-05
     55200   4557152.8      71.1642        223.70994      4.21875e+08    750            5.1286973e-05
     55300   4545527.4      70.705764      223.13927      4.21875e+08    750            5.1286973e-05
     55400   4533416.1      70.248856      222.54473      4.21875e+08    750            5.1286973e-05
     55500   4521701.6      69.793218      221.96969      4.21875e+08    750            5.1286973e-05
     55600   4508395.4      69.338177      221.3165       4.21875e+08    750            5.1286973e-05
     55700   4495276.6      68.88318       220.6725       4.21875e+08    750            5.1286973e-05
     55800   4483043.4      68.428927      220.07199      4.21875e+08    750            5.1286973e-05
     55900   4472298.4      67.974165      219.54454      4.21875e+08    750            5.1286973e-05
     56000   4460967.7      67.520268      218.98833      4.21875e+08    750            5.1286973e-05
     56100   4448597.2      67.068059      218.38108      4.21875e+08    750            5.1286973e-05
     56200   4438003.7      66.617669      217.86106      4.21875e+08    750            5.1286973e-05
     56300   4426160        66.167575      217.27967      4.21875e+08    750            5.1286973e-05
     56400   4415637.5      65.718878      216.76314      4.21875e+08    750            5.1286973e-05
     56500   4403240        65.331685      216.15457      4.21875e+08    750            5.1286973e-05
     56600   4391948        64.882998      215.60026      4.21875e+08    750            5.1286973e-05
     56700   4380151        64.435025      215.02116      4.21875e+08    750            5.1286973e-05
     56800   4368131.2      63.988111      214.43112      4.21875e+08    750            5.1286973e-05
     56900   4356693.1      63.543498      213.86964      4.21875e+08    750            5.1286973e-05
     57000   4345689.3      63.099697      213.32948      4.21875e+08    750            5.1286973e-05
     57100   4333705.4      62.657795      212.7412       4.21875e+08    750            5.1286973e-05
     57200   4321760.3      62.216271      212.15483      4.21875e+08    750            5.1286973e-05
     57300   4309902.9      61.774222      211.57277      4.21875e+08    750            5.1286973e-05
     57400   4298610.9      61.332698      211.01845      4.21875e+08    750            5.1286973e-05
     57500   4286384.2      60.893384      210.41826      4.21875e+08    750            5.1286973e-05
     57600   4274514.7      60.454612      209.83559      4.21875e+08    750            5.1286973e-05
     57700   4263389.5      60.017236      209.28948      4.21875e+08    750            5.1286973e-05
     57800   4253015.4      59.580447      208.78023      4.21875e+08    750            5.1286973e-05
     57900   4241844.8      59.144101      208.23188      4.21875e+08    750            5.1286973e-05
     58000   4230331.5      58.708291      207.6667       4.21875e+08    750            5.1286973e-05
     58100   4219250.2      58.273652      207.12274      4.21875e+08    750            5.1286973e-05
     58200   4207097.3      57.840697      206.52616      4.21875e+08    750            5.1286973e-05
     58300   4195240.2      57.407962      205.94411      4.21875e+08    750            5.1286973e-05
     58400   4183883.8      56.976899      205.38664      4.21875e+08    750            5.1286973e-05
     58500   4172330.1      56.485753      204.81947      4.21875e+08    750            5.1286973e-05
     58600   4160563.1      56.055719      204.24184      4.21875e+08    750            5.1286973e-05
     58700   4149127.5      55.625584      203.68048      4.21875e+08    750            5.1286973e-05
     58800   4138063.8      55.195909      203.13738      4.21875e+08    750            5.1286973e-05
     58900   4126779.9      54.767521      202.58346      4.21875e+08    750            5.1286973e-05
     59000   4116527.7      54.340403      202.0802       4.21875e+08    750            5.1286973e-05
     59100   4105811.8      53.851844      201.55416      4.21875e+08    750            5.1286973e-05
     59200   4095040.1      53.425732      201.02539      4.21875e+08    750            5.1286973e-05
     59300   4083205.8      53.002213      200.44445      4.21875e+08    750            5.1286973e-05
     59400   4072265.9      52.579991      199.90743      4.21875e+08    750            5.1286973e-05
     59500   4062556.7      52.160379      199.43082      4.21875e+08    750            5.1286973e-05
     59600   4051551.9      51.742976      198.89061      4.21875e+08    750            5.1286973e-05
     59700   4040826.4      51.327299      198.36411      4.21875e+08    750            5.1286973e-05
     59800   4029109.1      50.914032      197.78892      4.21875e+08    750            5.1286973e-05
     59900   4017875.6      50.501678      197.23748      4.21875e+08    750            5.1286973e-05
     60000   4007034.4      50.092062      196.70529      4.21875e+08    750            5.1286973e-05
     60100   3995703.1      49.683875      196.14905      4.21875e+08    750            5.1286973e-05
     60200   3985002.8      49.276348      195.62378      4.21875e+08    750            5.1286973e-05
     60300   3974091.1      48.870107      195.08814      4.21875e+08    750            5.1286973e-05
     60400   3963598.5      48.46536       194.57307      4.21875e+08    750            5.1286973e-05
     60500   3952206        48.060957      194.01382      4.21875e+08    750            5.1286973e-05
     60600   3940976.3      47.71991       193.46257      4.21875e+08    750            5.1286973e-05
     60700   3929822.7      47.319077      192.91505      4.21875e+08    750            5.1286973e-05
     60800   3919889.3      46.920453      192.42743      4.21875e+08    750            5.1286973e-05
     60900   3908922.7      46.522976      191.88909      4.21875e+08    750            5.1286973e-05
     61000   3898060        46.125451      191.35586      4.21875e+08    750            5.1286973e-05
     61100   3887832.4      45.727908      190.85379      4.21875e+08    750            5.1286973e-05
     61200   3877474        45.332715      190.34531      4.21875e+08    750            5.1286973e-05
     61300   3866757.1      44.938885      189.81923      4.21875e+08    750            5.1286973e-05
     61400   3855844.4      44.545091      189.28353      4.21875e+08    750            5.1286973e-05
     61500   3845017.8      44.152397      188.75207      4.21875e+08    750            5.1286973e-05
     61600   3834391.3      43.761964      188.23043      4.21875e+08    750            5.1286973e-05
     61700   3822998.7      43.374161      187.67117      4.21875e+08    750            5.1286973e-05
     61800   3813207.6      42.989826      187.19054      4.21875e+08    750            5.1286973e-05
     61900   3802971.8      42.607181      186.68808      4.21875e+08    750            5.1286973e-05
     62000   3793835.3      42.225752      186.23959      4.21875e+08    750            5.1286973e-05
     62100   3783254.3      41.845772      185.72018      4.21875e+08    750            5.1286973e-05
     62200   3772548.3      41.467452      185.19463      4.21875e+08    750            5.1286973e-05
     62300   3761656.5      41.092115      184.65996      4.21875e+08    750            5.1286973e-05
     62400   3752200.5      40.718539      184.19579      4.21875e+08    750            5.1286973e-05
     62500   3741789.7      40.346372      183.68474      4.21875e+08    750            5.1286973e-05
     62600   3731961.2      39.975546      183.20227      4.21875e+08    750            5.1286973e-05
     62700   3720963.6      39.606242      182.66241      4.21875e+08    750            5.1286973e-05
     62800   3710969.7      39.238375      182.17182      4.21875e+08    750            5.1286973e-05
     62900   3700791.6      38.870328      181.67219      4.21875e+08    750            5.1286973e-05
     63000   3690263        38.503598      181.15535      4.21875e+08    750            5.1286973e-05
     63100   3680458.2      38.139621      180.67405      4.21875e+08    750            5.1286973e-05
     63200   3669940.9      37.776178      180.15777      4.21875e+08    750            5.1286973e-05
     63300   3659375        37.414054      179.6391       4.21875e+08    750            5.1286973e-05
     63400   3648868.8      37.052585      179.12336      4.21875e+08    750            5.1286973e-05
     63500   3638584.2      36.692523      178.6185       4.21875e+08    750            5.1286973e-05
     63600   3628806.6      36.333796      178.13853      4.21875e+08    750            5.1286973e-05
     63700   3618212.1      35.976896      177.61846      4.21875e+08    750            5.1286973e-05
     63800   3608031.6      35.62104       177.11871      4.21875e+08    750            5.1286973e-05
     63900   3598309.3      35.26689       176.64145      4.21875e+08    750            5.1286973e-05
     64000   3588586.6      34.913945      176.16418      4.21875e+08    750            5.1286973e-05
     64100   3578826.7      34.563322      175.68509      4.21875e+08    750            5.1286973e-05
     64200   3568466.8      34.213011      175.17653      4.21875e+08    750            5.1286973e-05
     64300   3559310.7      33.863121      174.72707      4.21875e+08    750            5.1286973e-05
     64400   3550075.4      33.514385      174.27374      4.21875e+08    750            5.1286973e-05
     64500   3540122.9      33.167536      173.78518      4.21875e+08    750            5.1286973e-05
     64600   3529275.9      32.823462      173.25272      4.21875e+08    750            5.1286973e-05
     64700   3519080.7      32.480308      172.75225      4.21875e+08    750            5.1286973e-05
     64800   3509525.2      32.139075      172.28319      4.21875e+08    750            5.1286973e-05
     64900   3499396        31.799226      171.78596      4.21875e+08    750            5.1286973e-05
     65000   3489808        31.460444      171.31531      4.21875e+08    750            5.1286973e-05
     65100   3480820        31.1245        170.87411      4.21875e+08    750            5.1286973e-05
     65200   3470969.3      30.789451      170.39056      4.21875e+08    750            5.1286973e-05
     65300   3461334.8      30.455429      169.91763      4.21875e+08    750            5.1286973e-05
     65400   3452056.9      30.12271       169.4622       4.21875e+08    750            5.1286973e-05
     65500   3442278.8      29.791444      168.98221      4.21875e+08    750            5.1286973e-05
     65600   3432340.1      29.46166       168.49434      4.21875e+08    750            5.1286973e-05
     65700   3422990        29.133722      168.03537      4.21875e+08    750            5.1286973e-05
     65800   3414169.8      28.807785      167.60241      4.21875e+08    750            5.1286973e-05
     65900   3404829.3      28.482655      167.14391      4.21875e+08    750            5.1286973e-05
     66000   3395706.3      28.159708      166.69608      4.21875e+08    750            5.1286973e-05
     66100   3386060.7      27.837336      166.22261      4.21875e+08    750            5.1286973e-05
     66200   3376006.7      27.518461      165.72908      4.21875e+08    750            5.1286973e-05
     66300   3366228.3      27.201516      165.24908      4.21875e+08    750            5.1286973e-05
     66400   3356995        26.88805       164.79585      4.21875e+08    750            5.1286973e-05
     66500   3348378.6      26.577276      164.3729       4.21875e+08    750            5.1286973e-05
     66600   3339190        26.267314      163.92186      4.21875e+08    750            5.1286973e-05
     66700   3330047.6      25.959209      163.4731       4.21875e+08    750            5.1286973e-05
     66800   3320524.6      25.653871      163.00565      4.21875e+08    750            5.1286973e-05
     66900   3311168        25.412466      162.54638      4.21875e+08    750            5.1286973e-05
     67000   3302046.4      25.11153       162.09863      4.21875e+08    750            5.1286973e-05
     67100   3292112.7      24.814489      161.61102      4.21875e+08    750            5.1286973e-05
     67200   3282846.1      24.519938      161.15617      4.21875e+08    750            5.1286973e-05
     67300   3273843.9      24.228345      160.71429      4.21875e+08    750            5.1286973e-05
     67400   3264919.1      23.879378      160.27621      4.21875e+08    750            5.1286973e-05
     67500   3255340.6      23.596609      159.80605      4.21875e+08    750            5.1286973e-05
     67600   3245437.3      23.315191      159.31995      4.21875e+08    750            5.1286973e-05
     67700   3236007        23.035856      158.85706      4.21875e+08    750            5.1286973e-05
     67800   3225885.1      22.761406      158.36023      4.21875e+08    750            5.1286973e-05
     67900   3217121.4      22.492177      157.93007      4.21875e+08    750            5.1286973e-05
     68000   3208125.8      22.164619      157.48853      4.21875e+08    750            5.1286973e-05
     68100   3199103.7      21.901554      157.0457       4.21875e+08    750            5.1286973e-05
     68200   3190999.5      21.701103      156.64794      4.21875e+08    750            5.1286973e-05
     68300   3181913.2      21.437956      156.20196      4.21875e+08    750            5.1286973e-05
     68400   3172784.9      21.176082      155.75391      4.21875e+08    750            5.1286973e-05
     68500   3162744.9      20.91603       155.26111      4.21875e+08    750            5.1286973e-05
     68600   3154057.3      20.655693      154.8347       4.21875e+08    750            5.1286973e-05
     68700   3145820.1      20.402352      154.43041      4.21875e+08    750            5.1286973e-05
     68800   3137354.6      20.153762      154.01491      4.21875e+08    750            5.1286973e-05
     68900   3129109.1      19.908377      153.61022      4.21875e+08    750            5.1286973e-05
     69000   3120484.4      19.664172      153.18691      4.21875e+08    750            5.1286973e-05
     69100   3111915.9      19.422026      152.76636      4.21875e+08    750            5.1286973e-05
     69200   3103574.8      19.180525      152.35698      4.21875e+08    750            5.1286973e-05
     69300   3094996.1      18.940508      151.93592      4.21875e+08    750            5.1286973e-05
     69400   3086422.6      18.70739       151.51513      4.21875e+08    750            5.1286973e-05
     69500   3077505.4      18.480154      151.07747      4.21875e+08    750            5.1286973e-05
     69600   3069049.3      18.253797      150.66245      4.21875e+08    750            5.1286973e-05
     69700   3060595        18.027933      150.24751      4.21875e+08    750            5.1286973e-05
     69800   3051392.5      17.803555      149.79585      4.21875e+08    750            5.1286973e-05
     69900   3042712.8      17.582277      149.36985      4.21875e+08    750            5.1286973e-05
     70000   3033124.3      17.367967      148.89924      4.21875e+08    750            5.1286973e-05
     70100   3024698.9      17.162862      148.48574      4.21875e+08    750            5.1286973e-05
     70200   3015148.7      17.022688      148.01703      4.21875e+08    750            5.1286973e-05
     70300   3006725.3      16.819113      147.60363      4.21875e+08    750            5.1286973e-05
     70400   2997877.8      16.617438      147.16941      4.21875e+08    750            5.1286973e-05
     70500   2989052        16.42352       146.73625      4.21875e+08    750            5.1286973e-05
     70600   2980144        16.228147      146.29907      4.21875e+08    750            5.1286973e-05
     70700   2971555.6      16.039108      145.87757      4.21875e+08    750            5.1286973e-05
     70800   2963374.8      15.84949       145.47609      4.21875e+08    750            5.1286973e-05
     70900   2955399        15.655918      145.08466      4.21875e+08    750            5.1286973e-05
     71000   2946828.9      15.465253      144.66406      4.21875e+08    750            5.1286973e-05
     71100   2938796        15.280129      144.26983      4.21875e+08    750            5.1286973e-05
     71200   2929611.1      15.091433      143.81905      4.21875e+08    750            5.1286973e-05
     71300   2920596.6      14.902189      143.37663      4.21875e+08    750            5.1286973e-05
     71400   2912409.3      14.717244      142.97483      4.21875e+08    750            5.1286973e-05
     71500   2903963.1      14.53747       142.56032      4.21875e+08    750            5.1286973e-05
     71600   2895799.2      14.357114      142.15967      4.21875e+08    750            5.1286973e-05
     71700   2886809.2      14.177338      141.71846      4.21875e+08    750            5.1286973e-05
     71800   2879297.9      13.996918      141.34985      4.21875e+08    750            5.1286973e-05
     71900   2870715.5      13.815918      140.92865      4.21875e+08    750            5.1286973e-05
     72000   2863028        13.636017      140.55139      4.21875e+08    750            5.1286973e-05
     72100   2854794.9      13.457012      140.14734      4.21875e+08    750            5.1286973e-05
     72200   2846420.1      13.271525      139.73632      4.21875e+08    750            5.1286973e-05
     72300   2838716.1      13.141489      139.35825      4.21875e+08    750            5.1286973e-05
     72400   2830689.7      12.877136      138.96432      4.21875e+08    750            5.1286973e-05
     72500   2822830.3      12.673228      138.5786       4.21875e+08    750            5.1286973e-05
     72600   2815149.7      12.471966      138.20165      4.21875e+08    750            5.1286973e-05
     72700   2807027.2      12.270047      137.803        4.21875e+08    750            5.1286973e-05
     72800   2798730.5      12.074063      137.39581      4.21875e+08    750            5.1286973e-05
     72900   2790599.6      11.873106      136.99676      4.21875e+08    750            5.1286973e-05
     73000   2781520.1      11.667425      136.55113      4.21875e+08    750            5.1286973e-05
     73100   2773606.8      11.459905      136.16275      4.21875e+08    750            5.1286973e-05
     73200   2766337.1      11.246004      135.80596      4.21875e+08    750            5.1286973e-05
     73300   2758385        11.032915      135.41568      4.21875e+08    750            5.1286973e-05
     73400   2751102        10.831935      135.05824      4.21875e+08    750            5.1286973e-05
     73500   2742808.1      10.62458       134.65118      4.21875e+08    750            5.1286973e-05
     73600   2734610.6      10.408325      134.24884      4.21875e+08    750            5.1286973e-05
     73700   2727314.4      10.193549      133.89075      4.21875e+08    750            5.1286973e-05
     73800   2720032.7      9.9121         133.53335      4.21875e+08    750            5.1286973e-05
     73900   2711882.6      9.6819852      133.13333      4.21875e+08    750            5.1286973e-05
     74000   2704514.2      9.4489907      132.77168      4.21875e+08    750            5.1286973e-05
     74100   2696630.5      9.2059398      132.38472      4.21875e+08    750            5.1286973e-05
[...]
    191800   274.87674     -353.84233     -0.042594683    4.21875e+08    750            5.1286973e-05
    191900   273.2248      -353.87851     -0.042633929    4.21875e+08    750            5.1286973e-05
    192000   277.10257     -353.91012     -0.042401648    4.21875e+08    750            5.1286973e-05
    192100   279.00937     -353.93803     -0.042264851    4.21875e+08    750            5.1286973e-05
    192200   282.45973     -353.96767     -0.042055578    4.21875e+08    750            5.1286973e-05
    192300   281.39451     -354.00181     -0.042071808    4.21875e+08    750            5.1286973e-05
    192400   285.17943     -354.03778     -0.041855134    4.21875e+08    750            5.1286973e-05
    192500   291.37883     -354.07437     -0.041523186    4.21875e+08    750            5.1286973e-05
    192600   289.76333     -354.10445     -0.041567622    4.21875e+08    750            5.1286973e-05
    192700   288.57746     -354.12852     -0.041580815    4.21875e+08    750            5.1286973e-05
    192800   286.92602     -354.15138     -0.041613525    4.21875e+08    750            5.1286973e-05
    192900   283.4477      -354.16863     -0.041731134    4.21875e+08    750            5.1286973e-05
    193000   285.92682     -354.18529     -0.041554517    4.21875e+08    750            5.1286973e-05
    193100   283.92929     -354.20634     -0.041598865    4.21875e+08    750            5.1286973e-05
    193200   288.16453     -354.22746     -0.041335586    4.21875e+08    750            5.1286973e-05
    193300   285.27905     -354.24816     -0.041420411    4.21875e+08    750            5.1286973e-05
    193400   288.56026     -354.26175     -0.041197035    4.21875e+08    750            5.1286973e-05
    193500   283.72267     -354.27129     -0.041376048    4.21875e+08    750            5.1286973e-05
    193600   289.20587     -354.28142     -0.041052875    4.21875e+08    750            5.1286973e-05
    193700   289.8816      -354.29732     -0.040970318    4.21875e+08    750            5.1286973e-05
    193800   289.72957     -354.32388     -0.040940351    4.21875e+08    750            5.1286973e-05
    193900   284.67795     -354.34543     -0.041152867    4.21875e+08    750            5.1286973e-05
    194000   281.46729     -354.36856     -0.041276804    4.21875e+08    750            5.1286973e-05
    194100   286.56975     -354.39345     -0.040992212    4.21875e+08    750            5.1286973e-05
    194200   289.06147     -354.4131      -0.04083453     4.21875e+08    750            5.1286973e-05
    194300   289.30321     -354.43218     -0.040785415    4.21875e+08    750            5.1286973e-05
    194400   286.34017     -354.44573     -0.04088213     4.21875e+08    750            5.1286973e-05
    194500   287.22325     -354.46496     -0.040795552    4.21875e+08    750            5.1286973e-05
    194600   288.43034     -354.48455     -0.04069299     4.21875e+08    750            5.1286973e-05
    194700   288.07379     -354.5034      -0.040661748    4.21875e+08    750            5.1286973e-05
    194800   285.73609     -354.51637     -0.04071891     4.21875e+08    750            5.1286973e-05
    194900   283.26655     -354.52792     -0.040784808    4.21875e+08    750            5.1286973e-05
    195000   287.95041     -354.54026     -0.040501385    4.21875e+08    750            5.1286973e-05
    195100   286.96894     -354.55372     -0.040494739    4.21875e+08    750            5.1286973e-05
    195200   291.91917     -354.56773     -0.040194956    4.21875e+08    750            5.1286973e-05
    195300   286.17537     -354.58351     -0.040417521    4.21875e+08    750            5.1286973e-05
    195400   296.48611     -354.59743     -0.039854974    4.21875e+08    750            5.1286973e-05
    195500   296.44218     -354.61312     -0.03980452     4.21875e+08    750            5.1286973e-05
    195600   298.32929     -354.62675     -0.039664617    4.21875e+08    750            5.1286973e-05
    195700   298.90153     -354.63923     -0.039583609    4.21875e+08    750            5.1286973e-05
    195800   294.75618     -354.65062     -0.039736289    4.21875e+08    750            5.1286973e-05
    195900   290.8956      -354.6598      -0.039873375    4.21875e+08    750            5.1286973e-05
    196000   289.62429     -354.67469     -0.039892019    4.21875e+08    750            5.1286973e-05
    196100   289.99433     -354.69212     -0.03983294     4.21875e+08    750            5.1286973e-05
    196200   277.54813     -354.70528     -0.040394895    4.21875e+08    750            5.1286973e-05
    196300   279.00035     -354.7198      -0.04027661     4.21875e+08    750            5.1286973e-05
    196400   280.81896     -354.73431     -0.040146645    4.21875e+08    750            5.1286973e-05
    196500   278.74976     -354.75142     -0.040216699    4.21875e+08    750            5.1286973e-05
    196600   272.99569     -354.77099     -0.04046886     4.21875e+08    750            5.1286973e-05
    196700   273.18132     -354.78664     -0.040430078    4.21875e+08    750            5.1286973e-05
    196800   280.12094     -354.79949     -0.040052084    4.21875e+08    750            5.1286973e-05
    196900   279.31934     -354.81399     -0.040051532    4.21875e+08    750            5.1286973e-05
    197000   284.54898     -354.82825     -0.039754399    4.21875e+08    750            5.1286973e-05
    197100   282.55302     -354.8451      -0.039809578    4.21875e+08    750            5.1286973e-05
    197200   288.40552     -354.86202     -0.039477461    4.21875e+08    750            5.1286973e-05
    197300   286.18817     -354.87999     -0.039543668    4.21875e+08    750            5.1286973e-05
    197400   289.90112     -354.8953      -0.039318626    4.21875e+08    750            5.1286973e-05
    197500   283.83101     -354.90843     -0.039568347    4.21875e+08    750            5.1286973e-05
    197600   285.41929     -354.92057     -0.039445336    4.21875e+08    750            5.1286973e-05
    197700   281.46858     -354.92441     -0.039591728    4.21875e+08    750            5.1286973e-05
    197800   291.49967     -354.92068     -0.039043857    4.21875e+08    750            5.1286973e-05
    197900   295.44577     -354.91116     -0.038785993    4.21875e+08    750            5.1286973e-05
    198000   293.82162     -354.90272     -0.038800096    4.21875e+08    750            5.1286973e-05
    198100   287.80871     -354.89344     -0.03902762     4.21875e+08    750            5.1286973e-05
    198200   279.90516     -354.87901     -0.039340594    4.21875e+08    750            5.1286973e-05
    198300   274.56659     -354.85988     -0.039521337    4.21875e+08    750            5.1286973e-05
    198400   275.90179     -354.83877     -0.039369884    4.21875e+08    750            5.1286973e-05
    198500   278.43067     -354.82657     -0.039168906    4.21875e+08    750            5.1286973e-05
    198600   284.42444     -354.81431     -0.038791398    4.21875e+08    750            5.1286973e-05
    198700   285.73784     -354.80348     -0.038642761    4.21875e+08    750            5.1286973e-05
    198800   291.17956     -354.7918      -0.038299613    4.21875e+08    750            5.1286973e-05
    198900   291.1949      -354.78365     -0.038228663    4.21875e+08    750            5.1286973e-05
    199000   294.07052     -354.77477     -0.03802246     4.21875e+08    750            5.1286973e-05
    199100   289.77321     -354.76544     -0.038172399    4.21875e+08    750            5.1286973e-05
    199200   296.19118     -354.76523     -0.037809208    4.21875e+08    750            5.1286973e-05
    199300   296.05152     -354.77082     -0.037772888    4.21875e+08    750            5.1286973e-05
    199400   299.16946     -354.77383     -0.037575536    4.21875e+08    750            5.1286973e-05
    199500   304.41431     -354.77609     -0.037277367    4.21875e+08    750            5.1286973e-05
    199600   308.68337     -354.7847      -0.037028584    4.21875e+08    750            5.1286973e-05
    199700   316.34499     -354.79636     -0.036607779    4.21875e+08    750            5.1286973e-05
    199800   314.04788     -354.80686     -0.036670247    4.21875e+08    750            5.1286973e-05
    199900   309.98769     -354.81956     -0.036821714    4.21875e+08    750            5.1286973e-05
    200000   309.59337     -354.8361      -0.036801307    4.21875e+08    750            5.1286973e-05
    200100   302.40979     -354.84693     -0.037113002    4.21875e+08    750            5.1286973e-05
    200200   302.38636     -354.86069     -0.037080248    4.21875e+08    750            5.1286973e-05
    200300   307.63224     -354.87361     -0.036790697    4.21875e+08    750            5.1286973e-05
    200400   307.53631     -354.89202     -0.036765948    4.21875e+08    750            5.1286973e-05
    200500   309.18169     -354.90846     -0.036658699    4.21875e+08    750            5.1286973e-05
    200600   313.81447     -354.93005     -0.03641122     4.21875e+08    750            5.1286973e-05
    200700   320.53632     -354.95742     -0.036061163    4.21875e+08    750            5.1286973e-05
    200800   316.93252     -354.99189     -0.036222165    4.21875e+08    750            5.1286973e-05
    200900   315.19416     -355.02965     -0.036297277    4.21875e+08    750            5.1286973e-05
    201000   321.80877     -355.06946     -0.035958469    4.21875e+08    750            5.1286973e-05
    201100   325.27276     -355.11102     -0.035771227    4.21875e+08    750            5.1286973e-05
    201200   328.46009     -355.15186     -0.035594475    4.21875e+08    750            5.1286973e-05
    201300   318.799       -355.1934      -0.036048781    4.21875e+08    750            5.1286973e-05
    201400   320.50595     -355.23612     -0.035936842    4.21875e+08    750            5.1286973e-05
    201500   319.43647     -355.28333     -0.035962839    4.21875e+08    750            5.1286973e-05
    201600   322.10814     -355.33064     -0.035801165    4.21875e+08    750            5.1286973e-05
    201700   319.05754     -355.38554     -0.035929402    4.21875e+08    750            5.1286973e-05
    201800   311.35962     -355.44952     -0.03629406     4.21875e+08    750            5.1286973e-05
    201900   313.59189     -355.5107      -0.036161113    4.21875e+08    750            5.1286973e-05
    202000   320.39652     -355.57891     -0.035815215    4.21875e+08    750            5.1286973e-05
    202100   318.77668     -355.65431     -0.035889361    4.21875e+08    750            5.1286973e-05
    202200   321.02112     -355.73955     -0.035781705    4.21875e+08    750            5.1286973e-05
    202300   321.63297     -355.83272     -0.035761009    4.21875e+08    750            5.1286973e-05
    202400   319.91649     -355.92273     -0.035847703    4.21875e+08    750            5.1286973e-05
    202500   325.99586     -356.01229     -0.03555329     4.21875e+08    750            5.1286973e-05
    202600   333.51579     -356.09868     -0.035184808    4.21875e+08    750            5.1286973e-05
    202700   330.41886     -356.18103     -0.03533522     4.21875e+08    750            5.1286973e-05
    202800   337.47793     -356.25752     -0.034984966    4.21875e+08    750            5.1286973e-05
    202900   323.32501     -356.33177     -0.035675968    4.21875e+08    750            5.1286973e-05
    203000   326.94435     -356.40191     -0.035488675    4.21875e+08    750            5.1286973e-05
    203100   321.39615     -356.46924     -0.035746212    4.21875e+08    750            5.1286973e-05
    203200   323.07769     -356.53794     -0.035648526    4.21875e+08    750            5.1286973e-05
    203300   325.28572     -356.60397     -0.035518883    4.21875e+08    750            5.1286973e-05
    203400   321.49733     -356.66914     -0.035677181    4.21875e+08    750            5.1286973e-05
    203500   326.1796      -356.72975     -0.035414311    4.21875e+08    750            5.1286973e-05
    203600   325.64374     -356.78862     -0.035404679    4.21875e+08    750            5.1286973e-05
    203700   324.0373      -356.84991     -0.035447491    4.21875e+08    750            5.1286973e-05
    203800   332.46308     -356.91236     -0.035002589    4.21875e+08    750            5.1286973e-05
    203900   336.06567     -356.98095     -0.034798503    4.21875e+08    750            5.1286973e-05
    204000   338.05156     -357.05478     -0.034673525    4.21875e+08    750            5.1286973e-05
    204100   335.50553     -357.12385     -0.034766386    4.21875e+08    750            5.1286973e-05
    204200   336.18605     -357.18704     -0.034691976    4.21875e+08    750            5.1286973e-05
    204300   333.63564     -357.24981     -0.034773452    4.21875e+08    750            5.1286973e-05
    204400   328.55405     -357.3123      -0.034979395    4.21875e+08    750            5.1286973e-05
    204500   330.44465     -357.37278     -0.034840187    4.21875e+08    750            5.1286973e-05
    204600   334.65586     -357.43223     -0.034592727    4.21875e+08    750            5.1286973e-05
    204700   326.01388     -357.49471     -0.034981446    4.21875e+08    750            5.1286973e-05
    204800   323.25607     -357.55968     -0.035084917    4.21875e+08    750            5.1286973e-05
    204900   320.33428     -357.6243      -0.03519512     4.21875e+08    750            5.1286973e-05
    205000   321.13452     -357.68535     -0.035120827    4.21875e+08    750            5.1286973e-05
    205100   322.47649     -357.74301     -0.035020927    4.21875e+08    750            5.1286973e-05
    205200   319.49458     -357.79878     -0.035131798    4.21875e+08    750            5.1286973e-05
    205300   323.5185      -357.85324     -0.034901514    4.21875e+08    750            5.1286973e-05
    205400   319.56122     -357.90541     -0.03506531     4.21875e+08    750            5.1286973e-05
    205500   326.58201     -357.96176     -0.034689389    4.21875e+08    750            5.1286973e-05
    205600   322.46175     -358.01546     -0.034852311    4.21875e+08    750            5.1286973e-05
    205700   318.24694     -358.06427     -0.035017391    4.21875e+08    750            5.1286973e-05
    205800   316.6689      -358.10701     -0.03504866     4.21875e+08    750            5.1286973e-05
    205900   312.74374     -358.15179     -0.035202452    4.21875e+08    750            5.1286973e-05
    206000   324.3536      -358.19477     -0.034595312    4.21875e+08    750            5.1286973e-05
    206100   325.51897     -358.23582     -0.034501001    4.21875e+08    750            5.1286973e-05
    206200   324.05746     -358.27519     -0.034536594    4.21875e+08    750            5.1286973e-05
    206300   317.30248     -358.31372     -0.034834189    4.21875e+08    750            5.1286973e-05
    206400   317.05014     -358.35403     -0.034815366    4.21875e+08    750            5.1286973e-05
    206500   317.16923     -358.39686     -0.034783941    4.21875e+08    750            5.1286973e-05
    206600   310.25821     -358.44067     -0.03510073     4.21875e+08    750            5.1286973e-05
    206700   313.51352     -358.47894     -0.034910297    4.21875e+08    750            5.1286973e-05
    206800   303.20901     -358.51985     -0.03538891     4.21875e+08    750            5.1286973e-05
    206900   297.23149     -358.5613      -0.035656317    4.21875e+08    750            5.1286973e-05
    207000   302.32323     -358.60602     -0.035375977    4.21875e+08    750            5.1286973e-05
    207100   296.08724     -358.64624     -0.035646877    4.21875e+08    750            5.1286973e-05
    207200   296.31569     -358.67977     -0.03559572     4.21875e+08    750            5.1286973e-05
    207300   300.71024     -358.71458     -0.03533859     4.21875e+08    750            5.1286973e-05
    207400   305.55338     -358.7468      -0.035056723    4.21875e+08    750            5.1286973e-05
    207500   308.75636     -358.77039     -0.034848115    4.21875e+08    750            5.1286973e-05
    207600   309.1355      -358.7887      -0.034772941    4.21875e+08    750            5.1286973e-05
    207700   305.17134     -358.80666     -0.034914694    4.21875e+08    750            5.1286973e-05
    207800   299.65254     -358.8218      -0.035133219    4.21875e+08    750            5.1286973e-05
    207900   303.29532     -358.84042     -0.034907868    4.21875e+08    750            5.1286973e-05
    208000   304.94996     -358.86282     -0.03478487     4.21875e+08    750            5.1286973e-05
    208100   302.73698     -358.88332     -0.034842885    4.21875e+08    750            5.1286973e-05
    208200   292.68853     -358.90205     -0.035284302    4.21875e+08    750            5.1286973e-05
    208300   290.85066     -358.92056     -0.035328492    4.21875e+08    750            5.1286973e-05
    208400   294.74325     -358.93751     -0.035084492    4.21875e+08    750            5.1286973e-05
    208500   292.65451     -358.95156     -0.035131296    4.21875e+08    750            5.1286973e-05
    208600   293.05358     -358.97128     -0.035060863    4.21875e+08    750            5.1286973e-05
    208700   294.0436      -358.99374     -0.034964622    4.21875e+08    750            5.1286973e-05
    208800   302.0979      -359.01626     -0.034519069    4.21875e+08    750            5.1286973e-05
    208900   309.92309     -359.03095     -0.034076257    4.21875e+08    750            5.1286973e-05
    209000   307.36847     -359.04898     -0.034148388    4.21875e+08    750            5.1286973e-05
    209100   307.01111     -359.066       -0.03411077     4.21875e+08    750            5.1286973e-05
    209200   308.70555     -359.08801     -0.033972674    4.21875e+08    750            5.1286973e-05
    209300   315.24899     -359.11719     -0.033608765    4.21875e+08    750            5.1286973e-05
    209400   310.0431      -359.15041     -0.033825474    4.21875e+08    750            5.1286973e-05
    209500   309.85547     -359.18404     -0.033795449    4.21875e+08    750            5.1286973e-05
    209600   306.54767     -359.22245     -0.03392316     4.21875e+08    750            5.1286973e-05
    209700   302.68133     -359.26094     -0.034074727    4.21875e+08    750            5.1286973e-05
    209800   297.81215     -359.29768     -0.034273047    4.21875e+08    750            5.1286973e-05
    209900   297.93528     -359.33027     -0.034223482    4.21875e+08    750            5.1286973e-05
    210000   295.75174     -359.36313     -0.034280323    4.21875e+08    750            5.1286973e-05
Loop time of 4.98941 on 1 procs for 100000 steps with 153 atoms

Performance: 8.658 ns/day, 2.772 hours/ns, 20042.470 timesteps/s, 3.066 Matom-step/s
98.9% CPU use with 1 MPI tasks x 1 OpenMP threads

MPI task timing breakdown:
Section |  min time  |  avg time  |  max time  |%varavg| %total
---------------------------------------------------------------
Pair    | 3.8868     | 3.8868     | 3.8868     |   0.0 | 77.90
Bond    | 0.15462    | 0.15462    | 0.15462    |   0.0 |  3.10
Neigh   | 0.0025215  | 0.0025215  | 0.0025215  |   0.0 |  0.05
Comm    | 0.010206   | 0.010206   | 0.010206   |   0.0 |  0.20
Output  | 0.18888    | 0.18888    | 0.18888    |   0.0 |  3.79
Modify  | 0.71062    | 0.71062    | 0.71062    |   0.0 | 14.24
Other   |            | 0.03576    |            |       |  0.72

Nlocal:            153 ave         153 max         153 min
Histogram: 1 0 0 0 0 0 0 0 0 0
Nghost:              0 ave           0 max           0 min
Histogram: 1 0 0 0 0 0 0 0 0 0
Neighs:           2539 ave        2539 max        2539 min
Histogram: 1 0 0 0 0 0 0 0 0 0

Total # of neighbors = 2539
Ave neighs/atom = 16.594771
Ave special neighs/atom = 5.9215686
Neighbor list builds = 13
Dangerous builds = 0


# write_data data.polymer
Total wall time: 0:00:08
