ITEM: TIMESTEP
105900
ITEM: NUMBER OF ATOMS
140
ITEM: BOX BOUNDS pp pp pp
0.0000000000000000e+00 7.5000000000000000e+02
0.0000000000000000e+00 7.5000000000000000e+02
0.0000000000000000e+00 7.5000000000000000e+02
ITEM: ATOMS id x y z
1 358.667 363.489 360.295
7 362.384 361.15 365.393
3 364.442 359.87 362.326
2 363.076 360.909 360.535
11 364.588 367.029 362.48
5 361.514 361.449 363.389
10 361.613 365.884 367.331
4 361.117 362.678 363.576
6 361.247 364.8 363.539
8 364.968 363.368 364.178
9 362.839 365.529 366.409
12 367.218 368.031 363.353
13 368.099 363.748 367.253
15 366.286 367.558 367.672
18 365.906 368.348 367.532
14 368.84 366.361 365.883
22 371.815 366.983 368.39
19 365.408 371.017 366.581
20 369.89 371.842 368.24
21 371.921 367.606 370.518
17 365.53 372.044 368.424
16 365.64 371.394 370.192
23 369.365 368.744 369.702
26 374.888 369.518 372.411
24 369.646 369.705 373.677
27 370.594 370.623 373.038
25 374.95 369.863 371.587
28 373.433 370.769 374.37
29 373.474 371.717 374.668
32 378.376 378.515 372.4
30 378.4 372.912 373.224
31 379.408 376.198 373.148
33 373.349 375.874 376.781
34 373.172 373.598 378.185
35 375.443 374.258 379.525
36 376.246 374.325 378.994
37 376.045 380.193 379.413
38 380.373 379.034 377.534
39 381.518 378.183 378.822
40 377.048 377.761 377.59
41 378.869 377.41 379.784
44 379.245 382.703 377.958
43 383.371 381.993 377.243
45 382.692 381.885 380.955
42 382.051 382.501 377.237
46 380.754 380.124 382.211
47 379.551 381.136 383.048
50 383.153 380.715 385.378
48 381.269 383.706 383.688
49 380.374 383.328 386.37
56 387.108 382.114 386.294
52 388.108 384.805 382.914
53 388.711 384.768 382.605
51 383.448 383.304 385.553
55 387.325 383.5 384.615
54 385.263 386.108 384.866
57 385.143 385.092 389.688
58 388.867 388.326 387.46
59 387.098 389.206 387.583
60 387.344 389.065 391.137
61 387.21 391.155 387.939
62 389.103 392.472 387.259
63 387.181 388.587 391.395
64 391.03 390.679 390.505
65 393.955 392.759 388.92
66 392.719 391.932 388.95
67 388.81 393.132 391.177
73 393.533 392.81 393.306
68 389.004 394.009 391.488
71 394.924 393.272 392.649
72 395.09 390.742 392.289
77 398.231 394.141 394.619
75 395.474 396.819 394.381
69 390.403 391.124 395.461
74 395.074 392.967 395.724
70 391.892 395.105 395.355
76 394.64 398.294 395.798
80 400.824 398.645 395.189
78 396.425 396.33 397.598
79 395.315 397.125 398.305
81 397.71 401.08 396.743
82 397.983 403.098 400.058
83 401.044 401.97 399.352
84 400.497 401.533 401.249
85 402.188 401.42 398.543
86 401.483 401.485 398.338
87 402.037 397.386 401.523
89 402.558 404.435 402.705
91 401.943 405.163 401.874
92 403.718 405.823 406.144
88 404.693 400.844 403.699
90 400.994 405.874 402.367
94 402.684 404.481 406.722
98 407.019 407.592 404.646
95 404.263 407.682 404.537
97 406.326 409.508 406.771
96 407.58 408.094 407.753
93 401.39 404.756 408.615
105 407.88 414.411 411.749
99 407.934 409.327 408.77
100 410.925 408.933 410.077
101 410.276 410.101 411.119
102 408.222 409.658 411.362
103 409.8 412.75 408.334
104 408.979 413.208 410.781
106 408.259 413.555 411.899
107 410.409 408.638 414.846
108 414.601 409.621 411.927
109 412.818 412.063 414.347
110 412.567 412.008 414.21
111 413.689 412.971 411.849
112 413.639 416.025 411.824
113 414.231 416.556 412.403
115 412.096 416.498 413.993
116 414.575 415.501 416.184
118 417.971 416.464 414.786
114 413.836 417.486 411.904
119 417.959 414.661 414.868
120 416.915 418.586 414.848
123 419.156 416.039 418.531
121 417.353 419.744 416.448
124 417.186 416.639 419.119
117 420.22 414.163 413.325
122 419.781 421.138 415.582
125 418.584 421.324 420.273
126 422.442 423.193 417.627
127 419.877 419.897 421.687
128 418.827 424.464 423.184
129 422.001 421.732 424.488
130 421.646 423.084 422.757
131 421.432 426.245 425.443
132 425.152 422.84 425.155
133 424.42 425.523 423.96
134 424.839 423.534 426.957
137 424.87 425.766 427.779
139 426.723 428.472 427.562
135 423.582 423.08 428.978
136 425.332 424.192 428.803
138 426.72 429.018 425.152
140 429.247 423.968 429.331
ITEM: TIMESTEP
106000
ITEM: NUMBER OF ATOMS
140
ITEM: BOX BOUNDS pp pp pp
0.0000000000000000e+00 7.5000000000000000e+02
0.0000000000000000e+00 7.5000000000000000e+02
0.0000000000000000e+00 7.5000000000000000e+02
ITEM: ATOMS id x y z
1 358.674 363.494 360.301
7 362.39 361.158 365.398
3 364.446 359.873 362.332
2 363.081 360.915 360.54
11 364.591 367.033 362.488
5 361.518 361.455 363.394
10 361.618 365.887 367.335
4 361.122 362.682 363.58
6 361.253 364.803 363.543
8 364.974 363.373 364.183
9 362.843 365.532 366.411
12 367.222 368.034 363.36
13 368.103 363.754 367.256
15 366.29 367.56 367.677
18 365.91 368.356 367.536
14 368.843 366.365 365.888
22 371.817 366.989 368.394
19 365.413 371.021 366.587
20 369.895 371.845 368.244
21 371.923 367.61 370.52
17 365.534 372.045 368.428
16 365.646 371.395 370.194
23 369.37 368.748 369.706
26 374.89 369.523 372.415
24 369.649 369.709 373.68
27 370.598 370.627 373.041
25 374.952 369.866 371.589
28 373.436 370.773 374.372
29 373.48 371.722 374.672
32 378.379 378.517 372.405
30 378.401 372.917 373.229
31 379.408 376.202 373.153
33 373.353 375.876 376.783
34 373.176 373.602 378.188
35 375.445 374.261 379.528
36 376.249 374.33 378.998
37 376.05 380.192 379.415
38 380.374 379.035 377.536
39 381.519 378.185 378.824
40 377.052 377.764 377.594
41 378.873 377.415 379.784
44 379.249 382.705 377.962
43 383.372 381.996 377.247
45 382.693 381.888 380.957
42 382.053 382.502 377.241
46 380.755 380.127 382.212
47 379.555 381.139 383.048
50 383.155 380.718 385.379
48 381.271 383.708 383.69
49 380.378 383.328 386.37
56 387.109 382.115 386.294
52 388.108 384.808 382.915
53 388.709 384.773 382.608
51 383.451 383.306 385.552
55 387.327 383.502 384.617
54 385.266 386.107 384.868
57 385.144 385.094 389.687
58 388.867 388.326 387.463
59 387.099 389.208 387.585
60 387.345 389.065 391.136
61 387.211 391.157 387.941
62 389.103 392.471 387.259
63 387.183 388.589 391.393
64 391.033 390.68 390.506
65 393.954 392.758 388.92
66 392.719 391.933 388.952
67 388.813 393.132 391.18
73 393.537 392.81 393.306
68 389.006 394.006 391.49
71 394.921 393.271 392.65
72 395.089 390.744 392.291
77 398.228 394.144 394.623
75 395.474 396.819 394.382
69 390.404 391.129 395.459
74 395.075 392.968 395.723
70 391.891 395.105 395.356
76 394.641 398.29 395.797
80 400.821 398.643 395.189
78 396.424 396.33 397.596
79 395.316 397.125 398.303
81 397.711 401.079 396.742
82 397.983 403.098 400.056
83 401.043 401.969 399.353
84 400.5 401.531 401.245
85 402.185 401.421 398.543
86 401.485 401.484 398.343
87 402.036 397.39 401.522
89 402.558 404.431 402.703
91 401.941 405.162 401.874
92 403.717 405.822 406.141
88 404.69 400.842 403.697
90 400.993 405.869 402.367
94 402.684 404.479 406.721
98 407.017 407.591 404.646
95 404.262 407.681 404.539
97 406.324 409.505 406.767
96 407.578 408.092 407.749
93 401.389 404.755 408.613
105 407.878 414.409 411.746
99 407.931 409.325 408.768
100 410.922 408.933 410.076
101 410.274 410.098 411.114
102 408.221 409.655 411.357
103 409.796 412.747 408.333
104 408.976 413.205 410.779
106 408.256 413.555 411.897
107 410.407 408.638 414.842
108 414.599 409.62 411.926
109 412.814 412.06 414.343
110 412.563 412.007 414.207
111 413.684 412.968 411.85
112 413.636 416.021 411.822
113 414.229 416.554 412.401
115 412.095 416.494 413.99
116 414.573 415.498 416.18
118 417.968 416.46 414.783
114 413.832 417.484 411.903
119 417.954 414.658 414.863
120 416.913 418.583 414.845
123 419.151 416.037 418.526
121 417.351 419.74 416.444
124 417.184 416.639 419.115
117 420.215 414.162 413.322
122 419.777 421.132 415.581
125 418.58 421.32 420.269
126 422.436 423.188 417.625
127 419.875 419.894 421.682
128 418.824 424.459 423.182
129 421.996 421.73 424.483
130 421.642 423.08 422.754
131 421.428 426.239 425.439
132 425.145 422.839 425.148
133 424.415 425.517 423.955
134 424.835 423.531 426.952
137 424.865 425.762 427.776
139 426.72 428.466 427.557
135 423.577 423.076 428.972
136 425.326 424.189 428.797
138 426.716 429.012 425.149
140 429.244 423.966 429.323
ITEM: TIMESTEP
106100
ITEM: NUMBER OF ATOMS
140
ITEM: BOX BOUNDS pp pp pp
0.0000000000000000e+00 7.5000000000000000e+02
0.0000000000000000e+00 7.5000000000000000e+02
0.0000000000000000e+00 7.5000000000000000e+02
ITEM: ATOMS id x y z
1 358.681 363.499 360.308
7 362.396 361.167 365.403
3 364.45 359.876 362.338
2 363.085 360.92 360.545
11 364.594 367.038 362.496
5 361.523 361.461 363.399
10 361.623 365.891 367.339
4 361.126 362.686 363.584
6 361.259 364.805 363.546
8 364.979 363.377 364.189
9 362.847 365.535 366.414
12 367.226 368.037 363.366
13 368.106 363.759 367.26
15 366.293 367.562 367.681
18 365.913 368.364 367.54
14 368.846 366.368 365.894
22 371.819 366.995 368.398
19 365.418 371.024 366.593
20 369.899 371.847 368.248
21 371.924 367.613 370.521
17 365.537 372.046 368.432
16 365.651 371.396 370.196
23 369.374 368.753 369.71
26 374.892 369.528 372.419
24 369.652 369.714 373.683
27 370.602 370.631 373.045
25 374.954 369.868 371.592
28 373.438 370.776 374.374
29 373.485 371.727 374.677
32 378.382 378.518 372.411
30 378.402 372.922 373.234
31 379.408 376.205 373.158
33 373.358 375.879 376.785
34 373.179 373.605 378.191
35 375.447 374.265 379.53
36 376.251 374.335 379.001
37 376.055 380.191 379.416
38 380.374 379.036 377.538
39 381.519 378.187 378.827
40 377.057 377.767 377.597
41 378.876 377.42 379.784
44 379.252 382.706 377.966
43 383.373 382 377.25
45 382.693 381.891 380.959
42 382.055 382.503 377.245
46 380.756 380.129 382.213
47 379.558 381.143 383.049
50 383.157 380.721 385.38
48 381.273 383.71 383.691
49 380.382 383.327 386.37
56 387.111 382.117 386.294
52 388.107 384.811 382.915
53 388.708 384.777 382.611
51 383.453 383.309 385.551
55 387.328 383.504 384.62
54 385.269 386.107 384.869
57 385.144 385.095 389.685
58 388.868 388.326 387.466
59 387.1 389.21 387.587
60 387.346 389.065 391.136
61 387.212 391.158 387.943
62 389.103 392.47 387.259
63 387.184 388.591 391.391
64 391.036 390.681 390.507
65 393.953 392.758 388.92
66 392.719 391.934 388.954
67 388.816 393.131 391.183
73 393.54 392.81 393.306
68 389.007 394.002 391.492
71 394.92 393.27 392.65
72 395.087 390.746 392.293
77 398.225 394.146 394.627
75 395.474 396.82 394.384
69 390.404 391.133 395.456
74 395.076 392.969 395.723
70 391.89 395.104 395.357
76 394.643 398.285 395.796
80 400.819 398.642 395.189
78 396.423 396.329 397.594
79 395.316 397.125 398.302
81 397.712 401.077 396.742
82 397.984 403.097 400.054
83 401.042 401.968 399.354
84 400.502 401.53 401.241
85 402.182 401.423 398.543
86 401.487 401.483 398.348
87 402.035 397.394 401.52
89 402.558 404.428 402.7
91 401.939 405.161 401.874
92 403.716 405.822 406.138
88 404.688 400.841 403.694
90 400.993 405.865 402.366
94 402.683 404.478 406.72
98 407.015 407.59 404.647
95 404.261 407.679 404.541
97 406.323 409.503 406.764
96 407.577 408.091 407.744
93 401.389 404.755 408.61
105 407.876 414.407 411.744
99 407.927 409.322 408.765
100 410.918 408.933 410.075
101 410.272 410.096 411.11
102 408.22 409.652 411.353
103 409.793 412.745 408.332
104 408.974 413.203 410.778
106 408.254 413.556 411.895
107 410.406 408.637 414.839
108 414.597 409.618 411.925
109 412.81 412.056 414.339
110 412.558 412.006 414.204
111 413.678 412.965 411.851
112 413.633 416.017 411.821
113 414.226 416.552 412.399
115 412.095 416.491 413.986
116 414.571 415.495 416.176
118 417.965 416.455 414.779
114 413.829 417.481 411.901
119 417.949 414.654 414.857
120 416.911 418.579 414.842
123 419.146 416.035 418.522
121 417.349 419.736 416.44
124 417.182 416.639 419.111
117 420.209 414.162 413.319
122 419.773 421.126 415.579
125 418.577 421.316 420.265
126 422.431 423.183 417.623
127 419.872 419.892 421.677
128 418.822 424.453 423.18
129 421.991 421.727 424.478
130 421.637 423.075 422.751
131 421.425 426.234 425.435
132 425.138 422.838 425.141
133 424.41 425.512 423.951
134 424.83 423.528 426.946
137 424.86 425.758 427.772
139 426.717 428.46 427.552
135 423.573 423.072 428.967
136 425.321 424.185 428.792
138 426.711 429.006 425.146
140 429.24 423.963 429.315
ITEM: TIMESTEP
106200
ITEM: NUMBER OF ATOMS
140
ITEM: BOX BOUNDS pp pp pp
0.0000000000000000e+00 7.5000000000000000e+02
0.0000000000000000e+00 7.5000000000000000e+02
0.0000000000000000e+00 7.5000000000000000e+02
ITEM: ATOMS id x y z
1 358.687 363.504 360.314
7 362.401 361.175 365.407
3 364.454 359.879 362.344
2 363.089 360.925 360.55
11 364.598 367.042 362.503
5 361.528 361.468 363.404
10 361.628 365.895 367.342
4 361.131 362.689 363.587
6 361.265 364.808 363.55
8 364.984 363.382 364.194
9 362.851 365.539 366.416
12 367.23 368.039 363.372
13 368.11 363.765 367.263
15 366.296 367.564 367.685
18 365.916 368.371 367.544
14 368.849 366.371 365.899
22 371.821 367.002 368.403
19 365.423 371.028 366.599
20 369.903 371.849 368.252
21 371.925 367.617 370.523
17 365.54 372.047 368.435
16 365.657 371.398 370.197
23 369.378 368.758 369.714
26 374.893 369.532 372.423
24 369.655 369.718 373.686
27 370.606 370.634 373.048
25 374.956 369.871 371.595
28 373.44 370.78 374.377
29 373.491 371.732 374.681
32 378.385 378.519 372.416
30 378.403 372.927 373.238
31 379.409 376.209 373.164
33 373.363 375.882 376.787
34 373.182 373.609 378.195
35 375.45 374.268 379.533
36 376.253 374.34 379.005
37 376.06 380.19 379.417
38 380.374 379.037 377.54
39 381.52 378.189 378.83
40 377.061 377.77 377.601
41 378.88 377.425 379.784
44 379.255 382.708 377.971
43 383.374 382.004 377.254
45 382.692 381.894 380.961
42 382.057 382.503 377.249
46 380.756 380.132 382.213
47 379.562 381.147 383.049
50 383.159 380.724 385.381
48 381.275 383.711 383.693
49 380.386 383.327 386.37
56 387.112 382.119 386.294
52 388.107 384.814 382.916
53 388.707 384.781 382.613
51 383.456 383.312 385.55
55 387.33 383.506 384.622
54 385.271 386.107 384.87
57 385.145 385.097 389.684
58 388.868 388.326 387.468
59 387.101 389.211 387.59
60 387.347 389.065 391.135
61 387.213 391.16 387.945
62 389.102 392.469 387.26
63 387.185 388.592 391.389
64 391.039 390.682 390.508
65 393.952 392.758 388.92
66 392.719 391.934 388.956
67 388.82 393.13 391.185
73 393.544 392.81 393.306
68 389.009 393.999 391.494
71 394.918 393.269 392.651
72 395.085 390.747 392.295
77 398.222 394.148 394.631
75 395.474 396.82 394.386
69 390.404 391.138 395.453
74 395.077 392.97 395.722
70 391.889 395.103 395.358
76 394.645 398.281 395.795
80 400.817 398.641 395.19
78 396.422 396.328 397.592
79 395.316 397.125 398.3
81 397.713 401.076 396.742
82 397.984 403.096 400.052
83 401.041 401.967 399.355
84 400.505 401.528 401.237
85 402.179 401.424 398.543
86 401.49 401.482 398.352
87 402.035 397.398 401.519
89 402.559 404.425 402.697
91 401.938 405.16 401.874
92 403.715 405.822 406.135
88 404.685 400.839 403.691
90 400.993 405.861 402.365
94 402.683 404.476 406.718
98 407.013 407.588 404.647
95 404.26 407.678 404.542
97 406.321 409.501 406.761
96 407.575 408.09 407.74
93 401.389 404.754 408.608
105 407.875 414.405 411.741
99 407.924 409.32 408.763
100 410.915 408.933 410.074
101 410.271 410.093 411.105
102 408.219 409.648 411.348
103 409.79 412.742 408.331
104 408.971 413.201 410.776
106 408.251 413.556 411.893
107 410.404 408.637 414.835
108 414.595 409.617 411.924
109 412.806 412.052 414.336
110 412.554 412.005 414.201
111 413.673 412.962 411.852
112 413.63 416.013 411.819
113 414.223 416.55 412.397
115 412.094 416.487 413.983
116 414.569 415.493 416.173
118 417.961 416.451 414.776
114 413.825 417.479 411.9
119 417.945 414.651 414.852
120 416.91 418.575 414.839
123 419.141 416.032 418.517
121 417.347 419.732 416.436
124 417.18 416.639 419.106
117 420.203 414.162 413.316
122 419.769 421.12 415.578
125 418.573 421.312 420.262
126 422.425 423.179 417.621
127 419.87 419.89 421.672
128 418.819 424.448 423.179
129 421.985 421.725 424.473
130 421.633 423.071 422.748
131 421.422 426.229 425.431
132 425.131 422.837 425.134
133 424.406 425.507 423.946
134 424.826 423.526 426.941
137 424.855 425.755 427.769
139 426.714 428.454 427.546
135 423.568 423.068 428.962
136 425.315 424.182 428.787
138 426.706 428.999 425.143
140 429.237 423.961 429.307
ITEM: TIMESTEP
106300
ITEM: NUMBER OF ATOMS
140
ITEM: BOX BOUNDS pp pp pp
0.0000000000000000e+00 7.5000000000000000e+02
0.0000000000000000e+00 7.5000000000000000e+02
0.0000000000000000e+00 7.5000000000000000e+02
ITEM: ATOMS id x y z
1 358.694 363.509 360.32
7 362.407 361.184 365.412
3 364.457 359.882 362.349
2 363.093 360.931 360.555
11 364.601 367.047 362.511
5 361.533 361.474 363.408
10 361.633 365.898 367.346
4 361.135 362.693 363.59
6 361.27 364.81 363.553
8 364.99 363.386 364.2
9 362.855 365.542 366.419
12 367.233 368.042 363.377
13 368.114 363.771 367.266
15 366.299 367.565 367.69
18 365.919 368.379 367.548
14 368.851 366.375 365.905
22 371.823 367.008 368.407
19 365.428 371.031 366.605
20 369.907 371.851 368.256
21 371.925 367.62 370.524
17 365.543 372.049 368.439
16 365.662 371.399 370.199
23 369.381 368.762 369.718
26 374.894 369.537 372.426
24 369.657 369.723 373.689
27 370.61 370.638 373.052
25 374.958 369.873 371.597
28 373.443 370.783 374.379
29 373.497 371.737 374.685
32 378.387 378.52 372.421
30 378.404 372.932 373.243
31 379.409 376.213 373.169
33 373.367 375.884 376.789
34 373.186 373.612 378.198
35 375.452 374.271 379.536
36 376.255 374.345 379.008
37 376.065 380.19 379.419
38 380.374 379.038 377.543
39 381.521 378.191 378.832
40 377.065 377.773 377.604
41 378.883 377.43 379.784
44 379.259 382.709 377.975
43 383.376 382.007 377.257
45 382.692 381.896 380.963
42 382.059 382.504 377.252
46 380.757 380.134 382.213
47 379.565 381.151 383.05
50 383.16 380.727 385.382
48 381.277 383.713 383.694
49 380.39 383.327 386.37
56 387.114 382.12 386.295
52 388.106 384.816 382.916
53 388.706 384.785 382.615
51 383.458 383.314 385.549
55 387.332 383.507 384.624
54 385.274 386.106 384.872
57 385.145 385.099 389.682
58 388.869 388.327 387.471
59 387.102 389.213 387.592
60 387.348 389.065 391.134
61 387.214 391.161 387.947
62 389.102 392.468 387.26
63 387.187 388.594 391.387
64 391.042 390.682 390.509
65 393.951 392.757 388.92
66 392.719 391.935 388.959
67 388.823 393.129 391.188
73 393.548 392.81 393.306
68 389.01 393.996 391.496
71 394.916 393.268 392.652
72 395.083 390.749 392.298
77 398.22 394.151 394.635
75 395.474 396.82 394.387
69 390.404 391.142 395.45
74 395.077 392.972 395.721
70 391.888 395.103 395.359
76 394.646 398.276 395.794
80 400.814 398.641 395.19
78 396.421 396.327 397.59
79 395.316 397.125 398.298
81 397.713 401.074 396.743
82 397.984 403.095 400.05
83 401.04 401.966 399.356
84 400.507 401.527 401.233
85 402.176 401.426 398.542
86 401.492 401.48 398.357
87 402.034 397.402 401.518
89 402.558 404.423 402.695
91 401.936 405.159 401.874
92 403.714 405.821 406.132
88 404.683 400.837 403.688
90 400.992 405.856 402.364
94 402.682 404.474 406.717
98 407.011 407.587 404.648
95 404.259 407.677 404.543
97 406.32 409.499 406.757
96 407.573 408.088 407.735
93 401.388 404.754 408.605
105 407.874 414.404 411.739
99 407.921 409.317 408.761
100 410.912 408.933 410.072
101 410.269 410.09 411.1
102 408.218 409.645 411.344
103 409.786 412.739 408.331
104 408.969 413.199 410.774
106 408.249 413.557 411.891
107 410.402 408.636 414.831
108 414.594 409.615 411.923
109 412.802 412.048 414.332
110 412.549 412.004 414.198
111 413.668 412.96 411.853
112 413.627 416.009 411.818
113 414.221 416.548 412.395
115 412.093 416.484 413.98
116 414.567 415.49 416.17
118 417.959 416.447 414.772
114 413.822 417.477 411.899
119 417.94 414.647 414.847
120 416.908 418.572 414.836
123 419.136 416.03 418.513
121 417.345 419.728 416.432
124 417.178 416.639 419.102
117 420.198 414.161 413.314
122 419.765 421.115 415.576
125 418.569 421.308 420.258
126 422.42 423.174 417.619
127 419.868 419.887 421.667
128 418.816 424.442 423.177
129 421.98 421.723 424.468
130 421.629 423.066 422.745
131 421.419 426.224 425.427
132 425.123 422.836 425.128
133 424.401 425.502 423.942
134 424.822 423.523 426.936
137 424.851 425.752 427.766
139 426.711 428.449 427.541
135 423.564 423.065 428.957
136 425.309 424.179 428.781
138 426.702 428.993 425.14
140 429.235 423.959 429.299
ITEM: TIMESTEP
106400
ITEM: NUMBER OF ATOMS
140
ITEM: BOX BOUNDS pp pp pp
0.0000000000000000e+00 7.5000000000000000e+02
0.0000000000000000e+00 7.5000000000000000e+02
0.0000000000000000e+00 7.5000000000000000e+02
ITEM: ATOMS id x y z
1 358.7 363.513 360.326
7 362.413 361.192 365.417
3 364.461 359.886 362.355
2 363.097 360.936 360.56
11 364.605 367.051 362.518
5 361.537 361.48 363.413
10 361.638 365.902 367.35
4 361.139 362.696 363.594
6 361.275 364.813 363.557
8 364.995 363.39 364.205
9 362.858 365.544 366.422
12 367.237 368.044 363.383
13 368.118 363.777 367.269
15 366.302 367.567 367.694
18 365.922 368.387 367.552
14 368.854 366.378 365.91
22 371.825 367.014 368.411
19 365.432 371.035 366.611
20 369.912 371.853 368.259
21 371.926 367.624 370.525
17 365.547 372.05 368.442
16 365.668 371.4 370.2
23 369.385 368.766 369.722
26 374.896 369.541 372.43
24 369.66 369.727 373.692
27 370.614 370.641 373.055
25 374.96 369.876 371.6
28 373.445 370.787 374.381
29 373.503 371.742 374.69
32 378.39 378.521 372.425
30 378.405 372.937 373.247
31 379.409 376.217 373.174
33 373.372 375.886 376.791
34 373.189 373.615 378.201
35 375.455 374.274 379.539
36 376.258 374.349 379.012
37 376.07 380.189 379.42
38 380.374 379.039 377.545
39 381.521 378.193 378.835
40 377.069 377.776 377.607
41 378.887 377.435 379.784
44 379.263 382.711 377.979
43 383.377 382.011 377.26
45 382.692 381.899 380.965
42 382.062 382.505 377.256
46 380.758 380.137 382.214
47 379.569 381.155 383.05
50 383.162 380.729 385.383
48 381.278 383.715 383.695
49 380.394 383.326 386.37
56 387.115 382.122 386.295
52 388.105 384.819 382.916
53 388.704 384.789 382.618
51 383.461 383.317 385.549
55 387.334 383.509 384.626
54 385.276 386.106 384.873
57 385.146 385.1 389.681
58 388.869 388.327 387.473
59 387.104 389.216 387.595
60 387.349 389.065 391.133
61 387.215 391.163 387.949
62 389.102 392.467 387.259
63 387.188 388.595 391.384
64 391.045 390.683 390.51
65 393.95 392.757 388.92
66 392.72 391.935 388.961
67 388.826 393.128 391.19
73 393.553 392.81 393.306
68 389.011 393.993 391.498
71 394.915 393.267 392.653
72 395.081 390.751 392.299
77 398.217 394.153 394.639
75 395.474 396.82 394.389
69 390.404 391.147 395.447
74 395.078 392.973 395.721
70 391.887 395.102 395.36
76 394.648 398.271 395.793
80 400.812 398.64 395.19
78 396.421 396.326 397.588
79 395.316 397.125 398.297
81 397.714 401.073 396.743
82 397.985 403.094 400.048
83 401.039 401.964 399.356
84 400.509 401.525 401.229
85 402.174 401.427 398.542
86 401.494 401.479 398.361
87 402.033 397.406 401.516
89 402.558 404.42 402.692
91 401.935 405.157 401.875
92 403.712 405.821 406.129
88 404.681 400.836 403.685
90 400.992 405.852 402.363
94 402.682 404.473 406.715
98 407.008 407.586 404.648
95 404.258 407.675 404.545
97 406.318 409.498 406.754
96 407.571 408.087 407.731
93 401.388 404.753 408.603
105 407.873 414.402 411.736
99 407.918 409.315 408.758
100 410.909 408.933 410.071
101 410.268 410.087 411.095
102 408.216 409.642 411.34
103 409.783 412.737 408.329
104 408.967 413.197 410.772
106 408.246 413.557 411.889
107 410.401 408.636 414.827
108 414.592 409.614 411.922
109 412.799 412.044 414.329
110 412.545 412.003 414.195
111 413.662 412.957 411.853
112 413.624 416.005 411.817
113 414.219 416.547 412.393
115 412.092 416.48 413.977
116 414.564 415.488 416.167
118 417.956 416.442 414.769
114 413.819 417.475 411.898
119 417.935 414.644 414.842
120 416.906 418.569 414.833
123 419.132 416.028 418.508
121 417.343 419.724 416.428
124 417.176 416.639 419.098
117 420.192 414.161 413.311
122 419.761 421.109 415.575
125 418.566 421.304 420.254
126 422.415 423.169 417.617
127 419.866 419.885 421.662
128 418.814 424.437 423.175
129 421.975 421.72 424.464
130 421.625 423.062 422.742
131 421.416 426.218 425.422
132 425.117 422.835 425.121
133 424.396 425.497 423.937
134 424.818 423.521 426.931
137 424.847 425.749 427.763
139 426.709 428.443 427.536
135 423.559 423.061 428.953
136 425.304 424.176 428.776
138 426.698 428.987 425.137
140 429.232 423.956 429.291
ITEM: TIMESTEP
106500
ITEM: NUMBER OF ATOMS
140
ITEM: BOX BOUNDS pp pp pp
0.0000000000000000e+00 7.5000000000000000e+02
0.0000000000000000e+00 7.5000000000000000e+02
0.0000000000000000e+00 7.5000000000000000e+02
ITEM: ATOMS id x y z
1 358.707 363.518 360.332
7 362.419 361.2 365.421
3 364.465 359.889 362.36
2 363.101 360.941 360.565
11 364.608 367.055 362.526
5 361.541 361.486 363.418
10 361.643 365.906 367.354
4 361.144 362.7 363.597
6 361.281 364.815 363.56
8 364.999 363.394 364.21
9 362.862 365.547 366.424
12 367.24 368.046 363.389
13 368.121 363.782 367.272
15 366.305 367.569 367.698
18 365.925 368.394 367.556
14 368.856 366.381 365.915
22 371.827 367.021 368.415
19 365.437 371.039 366.617
20 369.916 371.855 368.263
21 371.927 367.627 370.527
17 365.55 372.051 368.446
16 365.673 371.401 370.202
23 369.389 368.771 369.725
26 374.897 369.546 372.434
24 369.662 369.732 373.695
27 370.618 370.644 373.058
25 374.961 369.88 371.603
28 373.448 370.79 374.383
29 373.508 371.747 374.694
32 378.392 378.522 372.43
30 378.406 372.942 373.251
31 379.409 376.22 373.179
33 373.377 375.888 376.793
34 373.192 373.619 378.204
35 375.457 374.277 379.542
36 376.26 374.354 379.016
37 376.075 380.188 379.421
38 380.374 379.04 377.547
39 381.522 378.195 378.837
40 377.073 377.779 377.61
41 378.891 377.44 379.784
44 379.267 382.713 377.984
43 383.378 382.014 377.263
45 382.692 381.901 380.967
42 382.063 382.506 377.26
46 380.758 380.14 382.214
47 379.572 381.159 383.05
50 383.163 380.732 385.384
48 381.28 383.717 383.697
49 380.399 383.326 386.37
56 387.117 382.124 386.295
52 388.104 384.822 382.917
53 388.703 384.792 382.62
51 383.463 383.319 385.547
55 387.335 383.511 384.627
54 385.279 386.105 384.875
57 385.146 385.102 389.68
58 388.869 388.327 387.475
59 387.105 389.218 387.597
60 387.35 389.065 391.132
61 387.216 391.165 387.951
62 389.101 392.466 387.259
63 387.189 388.597 391.382
64 391.047 390.684 390.511
65 393.95 392.757 388.921
66 392.72 391.936 388.963
67 388.829 393.128 391.193
73 393.557 392.809 393.306
68 389.012 393.989 391.499
71 394.913 393.265 392.654
72 395.079 390.752 392.301
77 398.214 394.155 394.643
75 395.474 396.821 394.39
69 390.403 391.151 395.444
74 395.078 392.974 395.72
70 391.887 395.102 395.361
76 394.65 398.266 395.791
80 400.81 398.639 395.191
78 396.42 396.325 397.587
79 395.316 397.126 398.296
81 397.715 401.071 396.743
82 397.986 403.093 400.047
83 401.037 401.963 399.357
84 400.511 401.524 401.224
85 402.171 401.428 398.543
86 401.496 401.478 398.366
87 402.033 397.41 401.515
89 402.559 404.418 402.69
91 401.934 405.156 401.875
92 403.711 405.82 406.127
88 404.679 400.834 403.681
90 400.992 405.848 402.363
94 402.682 404.471 406.714
98 407.006 407.585 404.649
95 404.258 407.674 404.546
97 406.317 409.496 406.751
96 407.569 408.086 407.727
93 401.388 404.752 408.6
105 407.871 414.401 411.734
99 407.915 409.312 408.755
100 410.905 408.933 410.069
101 410.266 410.085 411.09
102 408.215 409.639 411.335
103 409.78 412.735 408.328
104 408.965 413.195 410.771
106 408.244 413.558 411.887
107 410.399 408.635 414.823
108 414.591 409.612 411.921
109 412.795 412.041 414.326
110 412.541 412.002 414.192
111 413.657 412.955 411.854
112 413.62 416.001 411.815
113 414.217 416.545 412.391
115 412.092 416.477 413.974
116 414.562 415.485 416.164
118 417.953 416.438 414.766
114 413.815 417.473 411.897
119 417.93 414.64 414.837
120 416.905 418.565 414.83
123 419.127 416.026 418.504
121 417.341 419.72 416.424
124 417.174 416.639 419.094
117 420.186 414.16 413.308
122 419.757 421.103 415.573
125 418.562 421.3 420.251
126 422.41 423.164 417.616
127 419.864 419.882 421.658
128 418.811 424.432 423.174
129 421.97 421.718 424.459
130 421.621 423.057 422.739
131 421.413 426.213 425.418
132 425.11 422.834 425.115
133 424.391 425.492 423.933
134 424.814 423.519 426.926
137 424.842 425.746 427.76
139 426.706 428.438 427.531
135 423.555 423.057 428.948
136 425.299 424.173 428.771
138 426.694 428.982 425.134
140 429.229 423.954 429.283
ITEM: TIMESTEP
106600
ITEM: NUMBER OF ATOMS
140
ITEM: BOX BOUNDS pp pp pp
0.0000000000000000e+00 7.5000000000000000e+02
0.0000000000000000e+00 7.5000000000000000e+02
0.0000000000000000e+00 7.5000000000000000e+02
ITEM: ATOMS id x y z
1 358.713 363.522 360.338
7 362.425 361.207 365.426
3 364.468 359.892 362.366
2 363.105 360.947 360.57
11 364.611 367.059 362.533
5 361.546 361.492 363.423
10 361.648 365.909 367.358
4 361.148 362.703 363.601
6 361.286 364.818 363.563
8 365.004 363.398 364.216
9 362.865 365.549 366.427
12 367.243 368.049 363.394
13 368.125 363.788 367.275
15 366.308 367.57 367.702
18 365.928 368.401 367.56
14 368.859 366.384 365.921
22 371.829 367.027 368.419
19 365.441 371.043 366.622
20 369.92 371.857 368.266
21 371.927 367.631 370.528
17 365.554 372.053 368.449
16 365.679 371.402 370.204
23 369.392 368.775 369.729
26 374.899 369.55 372.438
24 369.665 369.736 373.698
27 370.622 370.647 373.062
25 374.962 369.883 371.605
28 373.45 370.794 374.385
29 373.514 371.753 374.699
32 378.395 378.524 372.435
30 378.407 372.946 373.255
31 379.409 376.224 373.184
33 373.382 375.89 376.795
34 373.195 373.622 378.206
35 375.459 374.28 379.545
36 376.262 374.358 379.02
37 376.08 380.187 379.422
38 380.374 379.041 377.549
39 381.523 378.197 378.84
40 377.077 377.782 377.613
41 378.894 377.444 379.784
44 379.27 382.715 377.988
43 383.379 382.018 377.267
45 382.691 381.904 380.969
42 382.065 382.507 377.264
46 380.758 380.142 382.214
47 379.576 381.163 383.05
50 383.164 380.735 385.385
48 381.282 383.718 383.698
49 380.403 383.325 386.37
56 387.118 382.126 386.295
52 388.103 384.825 382.917
53 388.701 384.796 382.622
51 383.466 383.321 385.546
55 387.337 383.513 384.629
54 385.281 386.104 384.876
57 385.147 385.103 389.678
58 388.869 388.327 387.478
59 387.106 389.22 387.599
60 387.351 389.065 391.132
61 387.216 391.166 387.953
62 389.101 392.465 387.259
63 387.189 388.598 391.38
64 391.049 390.684 390.512
65 393.948 392.757 388.921
66 392.72 391.936 388.965