ITEM: TIMESTEP
5900
ITEM: NUMBER OF ATOMS
140
ITEM: BOX BOUNDS pp pp pp
0.0000000000000000e+00 7.5000000000000000e+02
0.0000000000000000e+00 7.5000000000000000e+02
0.0000000000000000e+00 7.5000000000000000e+02
ITEM: ATOMS id x y z
1 353.56 353.588 353.572
2 353.987 353.97 353.969
3 354.408 354.384 354.398
4 355.04 355.051 355.055
5 355.908 355.9 355.913
6 356.323 356.348 356.338
7 356.745 356.722 356.768
8 357.412 357.404 357.401
9 358.215 358.227 358.234
10 358.672 358.692 358.695
11 359.106 359.113 359.078
12 359.769 359.773 359.751
13 360.557 360.534 360.558
14 361.003 361.004 360.995
15 361.454 361.459 361.464
16 362.102 362.133 362.126
17 362.865 362.9 362.877
18 363.367 363.355 363.359
19 363.787 363.825 363.795
20 364.459 364.469 364.453
21 365.211 365.185 365.207
22 365.707 365.681 365.683
23 366.152 366.15 366.152
24 366.794 366.795 366.82
25 367.561 367.526 367.51
26 368.06 368.029 368.045
27 368.491 368.504 368.512
28 369.152 369.138 369.153
29 369.851 369.851 369.871
30 370.393 370.359 370.365
31 370.892 370.876 370.861
32 371.509 371.51 371.476
33 372.185 372.204 372.209
34 372.702 372.707 372.728
35 373.213 373.205 373.231
36 373.828 373.81 373.825
37 374.503 374.525 374.527
38 375.074 375.063 375.056
39 375.582 375.565 375.569
40 376.161 376.174 376.167
41 376.83 376.824 376.853
42 377.413 377.426 377.385
43 377.929 377.912 377.898
44 378.51 378.534 378.504
45 379.201 379.196 379.189
46 379.742 379.736 379.747
47 380.258 380.268 380.286
48 380.872 380.877 380.87
49 381.507 381.527 381.542
50 382.092 382.082 382.099
51 382.584 382.593 382.611
52 383.212 383.202 383.191
53 383.886 383.853 383.844
54 384.412 384.418 384.42
55 384.96 384.939 384.943
56 385.573 385.554 385.573
57 386.183 386.185 386.212
58 386.788 386.784 386.772
59 387.293 387.305 387.294
60 387.876 387.876 387.893
61 388.528 388.549 388.533
62 389.119 389.127 389.102
63 389.626 389.628 389.659
64 390.238 390.234 390.229
65 390.899 390.891 390.883
66 391.469 391.46 391.443
67 391.962 391.989 391.996
68 392.558 392.596 392.547
69 393.205 393.191 393.223
70 393.804 393.82 393.818
71 394.342 394.335 394.326
72 394.915 394.893 394.9
73 395.532 395.534 395.538
74 396.152 396.147 396.162
75 396.678 396.68 396.673
76 397.224 397.269 397.255
77 397.91 397.874 397.876
78 398.481 398.482 398.494
79 399.009 399.017 399.021
80 399.609 399.59 399.571
81 400.223 400.243 400.222
82 400.834 400.86 400.853
83 401.381 401.383 401.369
84 401.92 401.936 401.951
85 402.586 402.57 402.555
86 403.186 403.199 403.161
87 403.721 403.701 403.723
88 404.284 404.267 404.28
89 404.9 404.91 404.899
90 405.518 405.551 405.531
91 406.035 406.034 406.033
92 406.601 406.608 406.609
93 407.231 407.251 407.283
94 407.87 407.872 407.885
95 408.389 408.413 408.387
96 408.95 408.946 408.953
97 409.594 409.613 409.595
98 410.228 410.229 410.211
99 410.749 410.757 410.753
100 411.288 411.271 411.279
101 411.957 411.954 411.951
102 412.574 412.574 412.594
103 413.084 413.099 413.071
104 413.613 413.628 413.615
105 414.275 414.296 414.292
106 414.908 414.949 414.916
107 415.41 415.401 415.439
108 415.964 415.941 415.941
109 416.629 416.628 416.636
110 417.258 417.264 417.273
111 417.769 417.759 417.748
112 418.267 418.278 418.264
113 418.978 418.984 418.965
114 419.623 419.638 419.612
115 420.095 420.119 420.104
116 420.607 420.612 420.622
117 421.348 421.308 421.305
118 421.985 421.982 421.978
119 422.467 422.445 422.453
120 422.939 422.952 422.93
121 423.676 423.685 423.68
122 424.346 424.352 424.329
123 424.806 424.791 424.803
124 425.261 425.257 425.279
125 426.032 426.04 426.039
126 426.705 426.708 426.675
127 427.133 427.132 427.136
128 427.591 427.629 427.617
129 428.38 428.371 428.386
130 429.041 429.047 429.045
131 429.491 429.515 429.51
132 429.955 429.918 429.957
133 430.748 430.757 430.744
134 431.411 431.4 431.417
135 431.836 431.837 431.863
136 432.255 432.243 432.267
137 433.104 433.116 433.121
138 433.772 433.784 433.757
139 434.214 434.229 434.22
140 434.601 434.571 434.606
ITEM: TIMESTEP
6000
ITEM: NUMBER OF ATOMS
140
ITEM: BOX BOUNDS pp pp pp
0.0000000000000000e+00 7.5000000000000000e+02
0.0000000000000000e+00 7.5000000000000000e+02
0.0000000000000000e+00 7.5000000000000000e+02
ITEM: ATOMS id x y z
1 353.512 353.633 353.561
2 354.029 353.956 353.952
3 354.459 354.359 354.418
4 355.035 355.083 355.101
5 355.893 355.86 355.917
6 356.293 356.402 356.359
7 356.721 356.623 356.821
8 357.432 357.396 357.385
9 358.166 358.218 358.248
10 358.645 358.732 358.742
11 359.108 359.138 358.989
12 359.795 359.813 359.72
13 360.579 360.482 360.585
14 360.94 360.946 360.906
15 361.439 361.461 361.481
16 362.074 362.205 362.177
17 362.834 362.984 362.884
18 363.383 363.332 363.347
19 363.701 363.866 363.737
20 364.459 364.505 364.436
21 365.243 365.133 365.227
22 365.724 365.611 365.619
23 366.105 366.099 366.107
24 366.758 366.762 366.869
25 367.666 367.515 367.446
26 368.12 367.986 368.055
27 368.405 368.462 368.497
28 369.157 369.095 369.16
29 369.828 369.828 369.911
30 370.432 370.286 370.311
31 370.974 370.906 370.839
32 371.568 371.57 371.424
33 372.17 372.251 372.272
34 372.642 372.661 372.752
35 373.196 373.165 373.276
36 373.798 373.72 373.786
37 374.438 374.533 374.54
38 375.112 375.062 375.032
39 375.636 375.561 375.577
40 376.096 376.151 376.121
41 376.742 376.719 376.841
42 377.439 377.496 377.319
43 377.977 377.905 377.845
44 378.462 378.564 378.436
45 379.234 379.21 379.184
46 379.724 379.698 379.746
47 380.246 380.288 380.369
48 380.89 380.912 380.881
49 381.442 381.528 381.594
50 382.099 382.058 382.129
51 382.505 382.542 382.62
52 383.222 383.18 383.133
53 383.963 383.821 383.782
54 384.344 384.37 384.38
55 384.979 384.888 384.904
56 385.646 385.568 385.649
57 386.127 386.139 386.254
58 386.828 386.81 386.758
59 387.265 387.317 387.271
60 387.824 387.823 387.897
61 388.483 388.573 388.503
62 389.118 389.153 389.045
63 389.557 389.567 389.699
64 390.258 390.238 390.217
65 390.963 390.929 390.893
66 391.487 391.448 391.376
67 391.86 391.98 392.01
68 392.512 392.674 392.462
69 393.164 393.104 393.24
70 393.791 393.861 393.853
71 394.359 394.327 394.289
72 394.925 394.83 394.859
73 395.453 395.461 395.478
74 396.151 396.128 396.192
75 396.663 396.673 396.643
76 397.135 397.328 397.265
77 397.956 397.801 397.81
78 398.424 398.431 398.482
79 398.949 398.985 399.002
80 399.672 399.591 399.509
81 400.183 400.271 400.177
82 400.801 400.915 400.883
83 401.412 401.421 401.362
84 401.892 401.962 402.027
85 402.621 402.556 402.489
86 403.174 403.23 403.069
87 403.744 403.656 403.751
88 404.343 404.273 404.329
89 404.849 404.894 404.848
90 405.457 405.602 405.516
91 405.958 405.956 405.95
92 406.597 406.627 406.629
93 407.151 407.237 407.375
94 407.825 407.837 407.893
95 408.349 408.456 408.34
96 408.989 408.972 408.999
97 409.586 409.667 409.592
98 410.22 410.224 410.145
99 410.766 410.802 410.784
100 411.333 411.261 411.293
101 412.019 412.009 411.996
102 412.558 412.559 412.644
103 413.078 413.142 413.025
104 413.625 413.69 413.634
105 414.259 414.352 414.334
106 414.852 415.03 414.885
107 415.349 415.313 415.476
108 416.024 415.923 415.924
109 416.636 416.633 416.667
110 417.212 417.239 417.276
111 417.763 417.719 417.675
112 418.217 418.264 418.201
113 418.983 419.009 418.93
114 419.611 419.677 419.562
115 420.033 420.136 420.073
116 420.572 420.593 420.639
117 421.422 421.25 421.235
118 421.992 421.983 421.966
119 422.486 422.389 422.423
120 422.903 422.958 422.861
121 423.67 423.709 423.687
122 424.372 424.399 424.299
123 424.802 424.735 424.786
124 425.195 425.178 425.272
125 426.034 426.071 426.066
126 426.744 426.758 426.615
127 427.073 427.07 427.087
128 427.53 427.694 427.645
129 428.355 428.315 428.382
130 429.002 429.027 429.02
131 429.475 429.576 429.556
132 430.026 429.87 430.036
133 430.748 430.789 430.73
134 431.415 431.371 431.442
135 431.797 431.802 431.913
136 432.261 432.207 432.313
137 433.057 433.107 433.128
138 433.767 433.823 433.705
139 434.198 434.262 434.222
140 434.626 434.496 434.648
ITEM: TIMESTEP
6100
ITEM: NUMBER OF ATOMS
140
ITEM: BOX BOUNDS pp pp pp
0.0000000000000000e+00 7.5000000000000000e+02
0.0000000000000000e+00 7.5000000000000000e+02
0.0000000000000000e+00 7.5000000000000000e+02
ITEM: ATOMS id x y z
1 353.464 353.677 353.55
2 354.071 353.943 353.937
3 354.51 354.334 354.437
4 355.03 355.115 355.146
5 355.878 355.82 355.92
6 356.264 356.456 356.38
7 356.697 356.526 356.873
8 357.452 357.389 357.369
9 358.118 358.209 358.261
10 358.619 358.77 358.79
11 359.109 359.162 358.901
12 359.821 359.853 359.689
13 360.602 360.431 360.612
14 360.879 360.889 360.819
15 361.424 361.462 361.499
16 362.045 362.277 362.228
17 362.804 363.067 362.891
18 363.398 363.308 363.336
19 363.617 363.906 363.679
20 364.46 364.54 364.42
21 365.275 365.081 365.247
22 365.741 365.543 365.557
23 366.059 366.048 366.063
24 366.723 366.73 366.918
25 367.769 367.505 367.383
26 368.18 367.943 368.066
27 368.32 368.42 368.482
28 369.162 369.054 369.167
29 369.805 369.805 369.95
30 370.47 370.214 370.257
31 371.055 370.936 370.817
32 371.626 371.629 371.373
33 372.155 372.298 372.334
34 372.582 372.615 372.776
35 373.179 373.125 373.32
36 373.769 373.632 373.748
37 374.375 374.541 374.553
38 375.149 375.061 375.008
39 375.689 375.557 375.586
40 376.032 376.129 376.076
41 376.656 376.616 376.83
42 377.465 377.565 377.254
43 378.025 377.898 377.792
44 378.415 378.595 378.37
45 379.266 379.224 379.178
46 379.707 379.662 379.744
47 380.235 380.309 380.451
48 380.908 380.947 380.892
49 381.377 381.529 381.644
50 382.106 382.034 382.159
51 382.426 382.492 382.629
52 383.233 383.158 383.075
53 384.039 383.789 383.721
54 384.276 384.322 384.341
55 384.998 384.837 384.865
56 385.719 385.582 385.724
57 386.073 386.092 386.296
58 386.867 386.836 386.744
59 387.238 387.33 387.248
60 387.773 387.771 387.901
61 388.438 388.597 388.474
62 389.116 389.179 388.987
63 389.488 389.507 389.738
64 390.278 390.243 390.205
65 391.026 390.967 390.904
66 391.504 391.436 391.31
67 391.759 391.97 392.024
68 392.466 392.752 392.378
69 393.123 393.017 393.258
70 393.779 393.9 393.887
71 394.375 394.319 394.252
72 394.935 394.767 394.819
73 395.373 395.388 395.418
74 396.149 396.11 396.223
75 396.648 396.667 396.613
76 397.047 397.385 397.276
77 398.001 397.729 397.746
78 398.367 398.38 398.469
79 398.89 398.954 398.983
80 399.733 399.591 399.447
81 400.143 400.298 400.133
82 400.769 400.97 400.914
83 401.443 401.458 401.356
84 401.865 401.987 402.102
85 402.656 402.541 402.423
86 403.163 403.26 402.977
87 403.767 403.611 403.778
88 404.402 404.279 404.376
89 404.798 404.877 404.796
90 405.397 405.653 405.501
91 405.883 405.879 405.868
92 406.593 406.646 406.649
93 407.072 407.222 407.465
94 407.782 407.802 407.9
95 408.31 408.497 408.293
96 409.027 408.998 409.045
97 409.578 409.721 409.588
98 410.212 410.22 410.08
99 410.783 410.847 410.815
100 411.379 411.25 411.307
101 412.08 412.062 412.041
102 412.542 412.544 412.694
103 413.073 413.184 412.978
104 413.637 413.751 413.653
105 414.243 414.407 414.375
106 414.797 415.11 414.855
107 415.29 415.226 415.513
108 416.084 415.905 415.908
109 416.642 416.636 416.697
110 417.167 417.214 417.279
111 417.758 417.681 417.601
112 418.167 418.25 418.14
113 418.988 419.034 418.896
114 419.599 419.715 419.512
115 419.971 420.153 420.043
116 420.537 420.574 420.655
117 421.495 421.192 421.166
118 422 421.982 421.953
119 422.505 422.335 422.393
120 422.867 422.964 422.793
121 423.664 423.733 423.694
122 424.399 424.446 424.269
123 424.797 424.681 424.769
124 425.129 425.099 425.266
125 426.036 426.102 426.092
126 426.783 426.807 426.556
127 427.015 427.008 427.039
128 427.47 427.758 427.673
129 428.33 428.259 428.377
130 428.964 429.008 428.995
131 429.458 429.636 429.6
132 430.097 429.822 430.114
133 430.748 430.82 430.717
134 431.42 431.342 431.467
135 431.758 431.767 431.962
136 432.267 432.172 432.358
137 433.01 433.099 433.136
138 433.763 433.861 433.654
139 434.182 434.295 434.223
140 434.65 434.422 434.689
ITEM: TIMESTEP
6200
ITEM: NUMBER OF ATOMS
140
ITEM: BOX BOUNDS pp pp pp
0.0000000000000000e+00 7.5000000000000000e+02
0.0000000000000000e+00 7.5000000000000000e+02
0.0000000000000000e+00 7.5000000000000000e+02
ITEM: ATOMS id x y z
1 353.418 353.721 353.539
2 354.113 353.93 353.921
3 354.561 354.31 354.457
4 355.026 355.147 355.191
5 355.864 355.781 355.923
6 356.235 356.509 356.4
7 356.673 356.43 356.925
8 357.471 357.382 357.353
9 358.07 358.201 358.275
10 358.593 358.809 358.836
11 359.11 359.186 358.814
12 359.846 359.893 359.659
13 360.624 360.38 360.638
14 360.818 360.833 360.732
15 361.41 361.464 361.516
16 362.017 362.349 362.277
17 362.774 363.149 362.899
18 363.414 363.285 363.326
19 363.533 363.947 363.622
20 364.46 364.574 364.403
21 365.307 365.03 365.267
22 365.757 365.475 365.495
23 366.013 365.998 366.019
24 366.688 366.698 366.966
25 367.871 367.495 367.321
26 368.239 367.901 368.076
27 368.237 368.38 368.467
28 369.167 369.013 369.174
29 369.783 369.783 369.99
30 370.508 370.142 370.204
31 371.136 370.965 370.795
32 371.683 371.688 371.323
33 372.141 372.344 372.395
34 372.523 372.57 372.799
35 373.163 373.085 373.363
36 373.74 373.545 373.71
37 374.312 374.55 374.566
38 375.185 375.06 374.985
39 375.742 375.554 375.594
40 375.969 376.106 376.031
41 376.57 376.514 376.819
42 377.491 377.634 377.19
43 378.073 377.892 377.74
44 378.368 378.625 378.304
45 379.298 379.238 379.173
46 379.69 379.625 379.743
47 380.224 380.33 380.532
48 380.925 380.981 380.903
49 381.314 381.529 381.695
50 382.113 382.011 382.188
51 382.349 382.443 382.637
52 383.243 383.136 383.018
53 384.114 383.758 383.66
54 384.21 384.276 384.302
55 385.017 384.787 384.826
56 385.792 385.596 385.798
57 386.019 386.047 386.337
58 386.906 386.862 386.731
59 387.212 387.342 387.226
60 387.723 387.72 387.905
61 388.394 388.62 388.445
62 389.115 389.204 388.931
63 389.421 389.447 389.777
64 390.297 390.247 390.193
65 391.088 391.005 390.914
66 391.522 391.424 391.244
67 391.66 391.961 392.037
68 392.42 392.828 392.296
69 393.083 392.931 393.275
70 393.766 393.94 393.92
71 394.391 394.311 394.216
72 394.945 394.706 394.78
73 395.295 395.316 395.359
74 396.148 396.091 396.252
75 396.634 396.66 396.584
76 396.961 397.442 397.287
77 398.046 397.658 397.681
78 398.312 398.33 398.457
79 398.831 398.923 398.965
80 399.794 399.591 399.385
81 400.104 400.324 400.089
82 400.737 401.024 400.944
83 401.473 401.495 401.349
84 401.837 402.012 402.176
85 402.69 402.527 402.359
86 403.152 403.29 402.886
87 403.789 403.567 403.805
88 404.46 404.284 404.424
89 404.749 404.861 404.746
90 405.338 405.702 405.487
91 405.809 405.803 405.787
92 406.589 406.665 406.668
93 406.993 407.208 407.553
94 407.739 407.767 407.908
95 408.271 408.539 408.247
96 409.064 409.023 409.09
97 409.57 409.774 409.584
98 410.203 410.215 410.016
99 410.801 410.891 410.845
100 411.423 411.24 411.321
101 412.141 412.115 412.084
102 412.526 412.529 412.744
103 413.067 413.226 412.932
104 413.648 413.812 413.672
105 414.228 414.461 414.415
106 414.743 415.189 414.826
107 415.231 415.139 415.549
108 416.142 415.888 415.892
109 416.649 416.64 416.726
110 417.122 417.189 417.281
111 417.752 417.643 417.529
112 418.118 418.236 418.079
113 418.994 419.059 418.861
114 419.588 419.752 419.463
115 419.91 420.169 420.013
116 420.503 420.555 420.671
117 421.567 421.134 421.098
118 422.007 421.982 421.94
119 422.523 422.28 422.363
120 422.831 422.969 422.726
121 423.659 423.756 423.701
122 424.424 424.492 424.239
123 424.793 424.626 424.752
124 425.064 425.022 425.259
125 426.038 426.132 426.117
126 426.822 426.856 426.498
127 426.957 426.947 426.992
128 427.41 427.822 427.699
129 428.305 428.205 428.373
130 428.927 428.989 428.97
131 429.442 429.696 429.645
132 430.167 429.774 430.191
133 430.748 430.85 430.703
134 431.424 431.313 431.492
135 431.72 431.733 432.01
136 432.272 432.137 432.403
137 432.964 433.09 433.143
138 433.759 433.898 433.603
139 434.166 434.327 434.224
140 434.673 434.349 434.73
ITEM: TIMESTEP
6300
ITEM: NUMBER OF ATOMS
140
ITEM: BOX BOUNDS pp pp pp
0.0000000000000000e+00 7.5000000000000000e+02
0.0000000000000000e+00 7.5000000000000000e+02
0.0000000000000000e+00 7.5000000000000000e+02
ITEM: ATOMS id x y z
1 353.372 353.764 353.529
2 354.155 353.918 353.906
3 354.61 354.286 354.477
4 355.022 355.178 355.235
5 355.85 355.742 355.927
6 356.207 356.561 356.421
7 356.65 356.335 356.977
8 357.491 357.375 357.338
9 358.023 358.192 358.289
10 358.568 358.847 358.883
11 359.112 359.21 358.728
12 359.872 359.932 359.629
13 360.646 360.33 360.665
14 360.758 360.777 360.646
15 361.395 361.465 361.532
16 361.99 362.419 362.327
17 362.745 363.23 362.906
18 363.429 363.263 363.315
19 363.452 363.986 363.566
20 364.46 364.609 364.387
21 365.339 364.98 365.287
22 365.774 365.408 365.434
23 365.968 365.949 365.975
24 366.653 366.666 367.013
25 367.972 367.485 367.26
26 368.297 367.86 368.086
27 368.154 368.339 368.452
28 369.172 368.973 369.181
29 369.761 369.761 370.028
30 370.545 370.072 370.152
31 371.215 370.994 370.774
32 371.739 371.746 371.273
33 372.127 372.389 372.456
34 372.464 372.526 372.823
35 373.147 373.046 373.406
36 373.712 373.459 373.672
37 374.25 374.558 374.579
38 375.221 375.06 374.962
39 375.793 375.55 375.603
40 375.906 376.085 375.986
41 376.486 376.413 376.807
42 377.516 377.701 377.127
43 378.12 377.885 377.689
44 378.322 378.654 378.24
45 379.33 379.252 379.167
46 379.673 379.59 379.742
47 380.213 380.35 380.612
48 380.942 381.015 380.913
49 381.251 381.53 381.744
50 382.12 381.988 382.218
51 382.272 382.394 382.646
52 383.253 383.115 382.962
53 384.188 383.726 383.599
54 384.144 384.23 384.263
55 385.035 384.737 384.788
56 385.863 385.609 385.872
57 385.966 386.002 386.377
58 386.944 386.888 386.718
59 387.186 387.354 387.204
60 387.673 387.67 387.909
61 388.35 388.643 388.417
62 389.113 389.228 388.875
63 389.354 389.388 389.815
64 390.316 390.251 390.182
65 391.149 391.042 390.925
66 391.539 391.413 391.179
67 391.561 391.952 392.051
68 392.376 392.904 392.214
69 393.043 392.846 393.291
70 393.754 393.979 393.954
71 394.407 394.304 394.18
72 394.955 394.645 394.741
73 395.219 395.246 395.301
74 396.146 396.073 396.281
75 396.619 396.653 396.555
76 396.875 397.498 397.298
77 398.09 397.588 397.618
78 398.258 398.281 398.445
79 398.773 398.892 398.947
80 399.854 399.592 399.325
81 400.065 400.351 400.047
82 400.706 401.077 400.973
83 401.503 401.532 401.343
84 401.81 402.037 402.249
85 402.724 402.512 402.295
86 403.141 403.319 402.797
87 403.811 403.523 403.832
88 404.517 404.29 404.47
89 404.7 404.844 404.696
90 405.279 405.751 405.472
91 405.736 405.728 405.707
92 406.585 406.683 406.687
93 406.916 407.194 407.641
94 407.696 407.733 407.915
95 408.233 408.58 408.201
96 409.101 409.048 409.134
97 409.561 409.826 409.581
98 410.195 410.21 409.953
99 410.818 410.934 410.875
100 411.467 411.229 411.334
101 412.201 412.167 412.126
102 412.511 412.514 412.792
103 413.061 413.267 412.887
104 413.659 413.871 413.69
105 414.213 414.514 414.455
106 414.689 415.267 414.796
107 415.172 415.054 415.584
108 416.2 415.87 415.876
109 416.655 416.643 416.756
110 417.077 417.165 417.284
111 417.747 417.606 417.458
112 418.069 418.222 418.019
113 418.999 419.083 418.827
114 419.576 419.789 419.415
115 419.85 420.186 419.983
116 420.469 420.537 420.686
117 421.638 421.077 421.03
118 422.015 421.982 421.927
119 422.541 422.227 422.334
120 422.796 422.975 422.659
121 423.653 423.779 423.708
122 424.45 424.537 424.209
123 424.788 424.572 424.736
124 424.999 424.945 425.252
125 426.04 426.161 426.143
126 426.859 426.903 426.44
127 426.899 426.886 426.945
128 427.352 427.884 427.726
129 428.281 428.151 428.369
130 428.89 428.97 428.945
131 429.426 429.754 429.688
132 430.235 429.727 430.267
133 430.748 430.88 430.69
134 431.428 431.285 431.516
135 431.682 431.699 432.058
136 432.277 432.102 432.447
137 432.918 433.082 433.15
138 433.755 433.935 433.552
139 434.15 434.359 434.226
140 434.697 434.276 434.77
ITEM: TIMESTEP
6400
ITEM: NUMBER OF ATOMS
140
ITEM: BOX BOUNDS pp pp pp
0.0000000000000000e+00 7.5000000000000000e+02
0.0000000000000000e+00 7.5000000000000000e+02
0.0000000000000000e+00 7.5000000000000000e+02
ITEM: ATOMS id x y z
1 353.326 353.807 353.519
2 354.196 353.906 353.891
3 354.66 354.263 354.496
4 355.018 355.209 355.279
5 355.837 355.704 355.93
6 356.178 356.613 356.442
7 356.628 356.242 357.028
8 357.51 357.368 357.323
9 357.977 358.184 358.302
10 358.542 358.884 358.929
11 359.113 359.234 358.644
12 359.897 359.97 359.6
13 360.668 360.28 360.691
14 360.699 360.723 360.562
15 361.381 361.467 361.549
16 361.963 362.488 362.376
17 362.716 363.311 362.913
18 363.444 363.241 363.305
19 363.371 364.025 363.51
20 364.46 364.643 364.371
21 365.371 364.931 365.306
22 365.791 365.342 365.375
23 365.924 365.9 365.933
24 366.619 366.635 367.06
25 368.071 367.476 367.2
26 368.355 367.819 368.097
27 368.073 368.3 368.438
28 369.177 368.933 369.189
29 369.739 369.739 370.067
30 370.582 370.003 370.101
31 371.293 371.023 370.753
32 371.795 371.804 371.224
33 372.114 372.434 372.516
34 372.406 372.482 372.846
35 373.131 373.008 373.449
36 373.685 373.374 373.636
37 374.189 374.566 374.592
38 375.256 375.059 374.94
39 375.844 375.547 375.611
40 375.845 376.063 375.943
41 376.403 376.313 376.797
42 377.542 377.768 377.065
43 378.166 377.879 377.638
44 378.276 378.684 378.176
45 379.361 379.265 379.162
46 379.657 379.555 379.74
47 380.201 380.37 380.69
48 380.958 381.048 380.924
49 381.189 381.531 381.793
50 382.127 381.966 382.247
51 382.197 382.347 382.654
52 383.263 383.094 382.907
53 384.261 383.695 383.54
54 384.08 384.184 384.225
55 385.054 384.688 384.75
56 385.933 385.622 385.944
57 385.914 385.957 386.417
58 386.982 386.913 386.705
59 387.16 387.366 387.183
60 387.624 387.62 387.912
61 388.307 388.666 388.389
62 389.112 389.253 388.82
63 389.289 389.329 389.853
64 390.335 390.255 390.17
65 391.209 391.078 390.935
66 391.556 391.401 391.115
67 391.464 391.943 392.064
68 392.332 392.978 392.133
69 393.004 392.763 393.308
70 393.742 394.017 393.987
71 394.422 394.296 394.145
72 394.965 394.585 394.703
73 395.143 395.175 395.244
74 396.145 396.055 396.31
75 396.604 396.647 396.526
76 396.791 397.553 397.308
77 398.134 397.518 397.555
78 398.204 398.232 398.433
79 398.716 398.861 398.929
80 399.913 399.592 399.266
81 400.027 400.377 400.005
82 400.675 401.13 401.003
83 401.533 401.568 401.336
84 401.784 402.061 402.321
85 402.757 402.498 402.232
86 403.13 403.348 402.709
87 403.832 403.48 403.858
88 404.573 404.296 404.516
89 404.652 404.828 404.647
90 405.221 405.8 405.457
91 405.665 405.653 405.627
92 406.581 406.701 406.706
93 406.84 407.18 407.727
94 407.654 407.699 407.922
95 408.195 408.62 408.156
96 409.137 409.072 409.178
97 409.553 409.878 409.577
98 410.187 410.205 409.89
99 410.834 410.977 410.904
100 411.51 411.219 411.347
101 412.26 412.218 412.168
102 412.495 412.499 412.84
103 413.056 413.308 412.841
104 413.67 413.93 413.708
105 414.198 414.566 414.494
106 414.635 415.344 414.767
107 415.115 414.969 415.619
108 416.258 415.853 415.86
109 416.661 416.647 416.785
110 417.033 417.14 417.287
111 417.741 417.569 417.387
112 418.021 418.208 417.96
113 419.004 419.107 418.794
114 419.564 419.825 419.367
115 419.791 420.202 419.954
116 420.436 420.519 420.702
117 421.709 421.021 420.963
118 422.022 421.981 421.914
119 422.559 422.174 422.305
120 422.761 422.98 422.594
121 423.648 423.801 423.714
122 424.475 424.581 424.18
123 424.783 424.519 424.719
124 424.935 424.869 425.245
125 426.041 426.19 426.168
126 426.897 426.95 426.383
127 426.842 426.826 426.898
128 427.293 427.946 427.752
129 428.257 428.097 428.365
130 428.853 428.951 428.921
131 429.41 429.812 429.731
132 430.303 429.68 430.342
133 430.747 430.91 430.677
134 431.432 431.256 431.54
135 431.644 431.665 432.105
136 432.282 432.068 432.49
137 432.873 433.073 433.157
138 433.751 433.971 433.502
139 434.134 434.39 434.227
140 434.72 434.205 434.809
ITEM: TIMESTEP
6500
ITEM: NUMBER OF ATOMS
140
ITEM: BOX BOUNDS pp pp pp
0.0000000000000000e+00 7.5000000000000000e+02
0.0000000000000000e+00 7.5000000000000000e+02
0.0000000000000000e+00 7.5000000000000000e+02
ITEM: ATOMS id x y z
1 353.282 353.849 353.509
2 354.237 353.893 353.876
3 354.709 354.24 354.515
4 355.014 355.24 355.322
5 355.823 355.666 355.934
6 356.151 356.665 356.462
7 356.606 356.15 357.078
8 357.53 357.362 357.308
9 357.931 358.176 358.316
10 358.518 358.921 358.974
11 359.115 359.257 358.561
12 359.922 360.008 359.571
13 360.69 360.232 360.717
14 360.641 360.669 360.48
15 361.367 361.468 361.566
16 361.936 362.557 362.424
17 362.687 363.391 362.92
18 363.459 363.22 363.294
19 363.291 364.064 363.456
20 364.461 364.677 364.355
21 365.402 364.882 365.326
22 365.808 365.277 365.316
23 365.88 365.852 365.891
24 366.586 366.604 367.107
25 368.17 367.467 367.141
26 368.412 367.778 368.107
27 367.993 368.262 368.424
28 369.182 368.894 369.196
29 369.718 369.718 370.105
30 370.618 369.934 370.05
31 371.371 371.051 370.732
32 371.85 371.861 371.175
33 372.1 372.478 372.575
34 372.349 372.439 372.868
35 373.116 372.97 373.492
36 373.658 373.29 373.601
37 374.129 374.574 374.604
38 375.292 375.059 374.917
39 375.895 375.543 375.619
40 375.784 376.042 375.9
41 376.322 376.215 376.786
42 377.568 377.835 377.004
43 378.212 377.873 377.589
44 378.231 378.712 378.113
45 379.392 379.279 379.157
46 379.64 379.52 379.739
47 380.19 380.39 380.768
48 380.975 381.081 380.934
49 381.128 381.532 381.842
50 382.134 381.943 382.275
51 382.122 382.3 382.663
52 383.272 383.074 382.852
53 384.333 383.664 383.481
54 384.016 384.139 384.188
55 385.071 384.64 384.713
56 386.001 385.635 386.016
57 385.862 385.914 386.457
58 387.019 386.938 386.692
59 387.135 387.379 387.161
60 387.575 387.571 387.916
61 388.264 388.689 388.361
62 389.11 389.277 388.765
63 389.223 389.271 389.89
64 390.353 390.259 390.159
65 391.269 391.114 390.946
66 391.573 391.389 391.052
67 391.368 391.934 392.077
68 392.289 393.052 392.054
69 392.965 392.681 393.325
70 393.731 394.055 394.019
71 394.437 394.288 394.11
72 394.974 394.526 394.665
73 395.068 395.107 395.187
74 396.143 396.037 396.339
75 396.59 396.641 396.498
76 396.708 397.608 397.318
77 398.177 397.45 397.494
78 398.15 398.184 398.421
79 398.66 398.831 398.911
80 399.972 399.593 399.207
81 399.989 400.402 399.963
82 400.645 401.181 401.032
83 401.562 401.604 401.33
84 401.757 402.086 402.391
85 402.791 402.484 402.169
86 403.119 403.376 402.621
87 403.853 403.437 403.884
88 404.629 404.301 404.561
89 404.605 404.812 404.599
90 405.163 405.847 405.443
91 405.594 405.58 405.548
92 406.578 406.718 406.724
93 406.765 407.166 407.812
94 407.612 407.665 407.929
95 408.158 408.659 408.112
96 409.173 409.096 409.221
97 409.545 409.929 409.574
98 410.179 410.2 409.828
99 410.851 411.02 410.933
100 411.553 411.209 411.359
101 412.319 412.269 412.208
102 412.48 412.485 412.887
103 413.05 413.348 412.797
104 413.681 413.989 413.726
105 414.183 414.618 414.532
106 414.582 415.42 414.738
107 415.058 414.886 415.654
108 416.314 415.836 415.844
109 416.667 416.65 416.813
110 416.99 417.116 417.289
111 417.735 417.532 417.316
112 417.973 418.195 417.901
113 419.01 419.13 418.76
114 419.552 419.861 419.32
115 419.732 420.217 419.925
116 420.403 420.501 420.717
117 421.778 420.966 420.897
118 422.028 421.981 421.902
119 422.577 422.121 422.276
120 422.726 422.984 422.529
121 423.642 423.823 423.72
122 424.499 424.625 424.151
123 424.778 424.466 424.703
124 424.872 424.794 425.239
125 426.043 426.218 426.192
126 426.934 426.996 426.326
127 426.786 426.767 426.853
128 427.236 428.007 427.777
129 428.233 428.044 428.361
130 428.817 428.932 428.896
131 429.394 429.869 429.773
132 430.37 429.634 430.416
133 430.747 430.939 430.663
134 431.436 431.228 431.563
135 431.607 431.632 432.151
136 432.287 432.034 432.532
137 432.828 433.064 433.164
138 433.747 434.007 433.453
139 434.119 434.421 434.227
140 434.742 434.134 434.847
ITEM: TIMESTEP
6600
ITEM: NUMBER OF ATOMS
140
ITEM: BOX BOUNDS pp pp pp
0.0000000000000000e+00 7.5000000000000000e+02
0.0000000000000000e+00 7.5000000000000000e+02
0.0000000000000000e+00 7.5000000000000000e+02
ITEM: ATOMS id x y z
1 353.238 353.892 353.5
2 354.277 353.882 353.862
3 354.757 354.218 354.534
4 355.011 355.271 355.365
5 355.81 355.629 355.938
6 356.124 356.715 356.483
7 356.584 356.059 357.129
8 357.55 357.356 357.294
9 357.887 358.168 358.329
10 358.493 358.957 359.019
11 359.116 359.28 358.48
12 359.947 360.046 359.542
13 360.711 360.184 360.742
14 360.585 360.617 360.399
15 361.354 361.47 361.582
16 361.91 362.625 362.472
17 362.659 363.47 362.927
18 363.474 363.198 363.284
19 363.213 364.103 363.402
20 364.461 364.71 364.339
21 365.433 364.834 365.345
22 365.825 365.213 365.258
23 365.837 365.805 365.849
24 366.553 366.573 367.153
25 368.267 367.458 367.082
26 368.468 367.738 368.117
27 367.913 368.224 368.411
28 369.187 368.855 369.203
29 369.697 369.698 370.143
30 370.654 369.867 370
31 371.448 371.079 370.712
32 371.904 371.917 371.127
33 372.087 372.522 372.634
34 372.293 372.396 372.891
35 373.101 372.933 373.534
36 373.631 373.208 373.566
37 374.07 374.582 374.616
38 375.326 375.058 374.895
39 375.945 375.54 375.628
40 375.724 376.021 375.857
41 376.241 376.118 376.776
42 377.593 377.9 376.944
43 378.257 377.867 377.539
44 378.187 378.741 378.051
45 379.423 379.293 379.153
46 379.624 379.487 379.738
47 380.179 380.409 380.844
48 380.991 381.113 380.945
49 381.068 381.533 381.889
50 382.141 381.921 382.303
51 382.049 382.254 382.672
52 383.282 383.054 382.798
53 384.405 383.634 383.423
54 383.953 384.095 384.151
55 385.089 384.592 384.676
56 386.069 385.646 386.086
57 385.811 385.87 386.496
58 387.056 386.963 386.679
59 387.11 387.391 387.14
60 387.528 387.522 387.921
61 388.222 388.711 388.334
62 389.109 389.301 388.711
63 389.159 389.214 389.927
64 390.371 390.262 390.148
65 391.328 391.15 390.956
66 391.59 391.378 390.99
67 391.274 391.926 392.089
68 392.246 393.124 391.975