ITEM: TIMESTEP
0
ITEM: NUMBER OF ATOMS
140
ITEM: BOX BOUNDS pp pp pp
0.0000000000000000e+00 7.5000000000000000e+02
0.0000000000000000e+00 7.5000000000000000e+02
0.0000000000000000e+00 7.5000000000000000e+02
ITEM: ATOMS id x y z
1 187.5 187.5 187.5
2 190.472 190.472 190.472
3 193.445 193.445 193.445
4 196.417 196.417 196.417
5 199.389 199.389 199.389
6 202.361 202.361 202.361
7 205.334 205.334 205.334
8 208.306 208.306 208.306
9 211.278 211.278 211.278
10 214.25 214.25 214.25
11 217.223 217.223 217.223
12 220.195 220.195 220.195
13 223.167 223.167 223.167
14 226.139 226.139 226.139
15 229.112 229.112 229.112
16 232.084 232.084 232.084
17 235.056 235.056 235.056
18 238.029 238.029 238.029
19 241.001 241.001 241.001
20 243.973 243.973 243.973
21 246.945 246.945 246.945
22 249.918 249.918 249.918
23 252.89 252.89 252.89
24 255.862 255.862 255.862
25 258.834 258.834 258.834
26 261.807 261.807 261.807
27 264.779 264.779 264.779
28 267.751 267.751 267.751
29 270.723 270.723 270.723
30 273.696 273.696 273.696
31 276.668 276.668 276.668
32 279.64 279.64 279.64
33 282.612 282.612 282.612
34 285.585 285.585 285.585
35 288.557 288.557 288.557
36 291.529 291.529 291.529
37 294.502 294.502 294.502
38 297.474 297.474 297.474
39 300.446 300.446 300.446
40 303.418 303.418 303.418
41 306.391 306.391 306.391
42 309.363 309.363 309.363
43 312.335 312.335 312.335
44 315.307 315.307 315.307
45 318.28 318.28 318.28
46 321.252 321.252 321.252
47 324.224 324.224 324.224
48 327.196 327.196 327.196
49 330.169 330.169 330.169
50 333.141 333.141 333.141
51 336.113 336.113 336.113
52 339.086 339.086 339.086
53 342.058 342.058 342.058
54 345.03 345.03 345.03
55 348.002 348.002 348.002
56 350.975 350.975 350.975
57 353.947 353.947 353.947
58 356.919 356.919 356.919
59 359.891 359.891 359.891
60 362.864 362.864 362.864
61 365.836 365.836 365.836
62 368.808 368.808 368.808
63 371.78 371.78 371.78
64 374.753 374.753 374.753
65 377.725 377.725 377.725
66 380.697 380.697 380.697
67 383.669 383.669 383.669
68 386.642 386.642 386.642
69 389.614 389.614 389.614
70 392.586 392.586 392.586
71 395.559 395.559 395.559
72 398.531 398.531 398.531
73 401.503 401.503 401.503
74 404.475 404.475 404.475
75 407.448 407.448 407.448
76 410.42 410.42 410.42
77 413.392 413.392 413.392
78 416.364 416.364 416.364
79 419.337 419.337 419.337
80 422.309 422.309 422.309
81 425.281 425.281 425.281
82 428.253 428.253 428.253
83 431.226 431.226 431.226
84 434.198 434.198 434.198
85 437.17 437.17 437.17
86 440.143 440.143 440.143
87 443.115 443.115 443.115
88 446.087 446.087 446.087
89 449.059 449.059 449.059
90 452.032 452.032 452.032
91 455.004 455.004 455.004
92 457.976 457.976 457.976
93 460.948 460.948 460.948
94 463.921 463.921 463.921
95 466.893 466.893 466.893
96 469.865 469.865 469.865
97 472.837 472.837 472.837
98 475.81 475.81 475.81
99 478.782 478.782 478.782
100 481.754 481.754 481.754
101 484.726 484.726 484.726
102 487.699 487.699 487.699
103 490.671 490.671 490.671
104 493.643 493.643 493.643
105 496.616 496.616 496.616
106 499.588 499.588 499.588
107 502.56 502.56 502.56
108 505.532 505.532 505.532
109 508.505 508.505 508.505
110 511.477 511.477 511.477
111 514.449 514.449 514.449
112 517.421 517.421 517.421
113 520.394 520.394 520.394
114 523.366 523.366 523.366
115 526.338 526.338 526.338
116 529.31 529.31 529.31
117 532.283 532.283 532.283
118 535.255 535.255 535.255
119 538.227 538.227 538.227
120 541.2 541.2 541.2
121 544.172 544.172 544.172
122 547.144 547.144 547.144
123 550.116 550.116 550.116
124 553.089 553.089 553.089
125 556.061 556.061 556.061
126 559.033 559.033 559.033
127 562.005 562.005 562.005
128 564.978 564.978 564.978
129 567.95 567.95 567.95
130 570.922 570.922 570.922
131 573.894 573.894 573.894
132 576.867 576.867 576.867
133 579.839 579.839 579.839
134 582.811 582.811 582.811
135 585.783 585.783 585.783
136 588.756 588.756 588.756
137 591.728 591.728 591.728
138 594.7 594.7 594.7
139 597.673 597.673 597.673
140 600.645 600.645 600.645
ITEM: TIMESTEP
10
ITEM: NUMBER OF ATOMS
140
ITEM: BOX BOUNDS pp pp pp
0.0000000000000000e+00 7.5000000000000000e+02
0.0000000000000000e+00 7.5000000000000000e+02
0.0000000000000000e+00 7.5000000000000000e+02
ITEM: ATOMS id x y z
1 188.5 188.5 188.5
2 190.638 190.638 190.638
3 193.463 193.463 193.463
4 196.418 196.418 196.418
5 199.389 199.389 199.389
6 202.361 202.361 202.361
7 205.334 205.334 205.334
8 208.306 208.306 208.306
9 211.278 211.278 211.278
10 214.25 214.25 214.25
11 217.223 217.223 217.223
12 220.195 220.195 220.195
13 223.167 223.167 223.167
14 226.139 226.139 226.139
15 229.112 229.112 229.112
16 232.084 232.084 232.084
17 235.056 235.056 235.056
18 238.029 238.029 238.029
19 241.001 241.001 241.001
20 243.973 243.973 243.973
21 246.945 246.945 246.945
22 249.918 249.918 249.918
23 252.89 252.89 252.89
24 255.862 255.862 255.862
25 258.834 258.834 258.834
26 261.807 261.807 261.807
27 264.779 264.779 264.779
28 267.751 267.751 267.751
29 270.723 270.723 270.723
30 273.696 273.696 273.696
31 276.668 276.668 276.668
32 279.64 279.64 279.64
33 282.612 282.612 282.612
34 285.585 285.585 285.585
35 288.557 288.557 288.557
36 291.529 291.529 291.529
37 294.502 294.502 294.502
38 297.474 297.474 297.474
39 300.446 300.446 300.446
40 303.418 303.418 303.418
41 306.391 306.391 306.391
42 309.363 309.363 309.363
43 312.335 312.335 312.335
44 315.307 315.307 315.307
45 318.28 318.28 318.28
46 321.252 321.252 321.252
47 324.224 324.224 324.224
48 327.196 327.196 327.196
49 330.169 330.169 330.169
50 333.141 333.141 333.141
51 336.113 336.113 336.113
52 339.086 339.086 339.086
53 342.058 342.058 342.058
54 345.03 345.03 345.03
55 348.002 348.002 348.002
56 350.975 350.975 350.975
57 353.947 353.947 353.947
58 356.919 356.919 356.919
59 359.891 359.891 359.891
60 362.864 362.864 362.864
61 365.836 365.836 365.836
62 368.808 368.808 368.808
63 371.78 371.78 371.78
64 374.753 374.753 374.753
65 377.725 377.725 377.725
66 380.697 380.697 380.697
67 383.669 383.669 383.669
68 386.642 386.642 386.642
69 389.614 389.614 389.614
70 392.586 392.586 392.586
71 395.559 395.559 395.559
72 398.531 398.531 398.531
73 401.503 401.503 401.503
74 404.475 404.475 404.475
75 407.448 407.448 407.448
76 410.42 410.42 410.42
77 413.392 413.392 413.392
78 416.364 416.364 416.364
79 419.337 419.337 419.337
80 422.309 422.309 422.309
81 425.281 425.281 425.281
82 428.253 428.253 428.253
83 431.226 431.226 431.226
84 434.198 434.198 434.198
85 437.17 437.17 437.17
86 440.143 440.143 440.143
87 443.115 443.115 443.115
88 446.087 446.087 446.087
89 449.059 449.059 449.059
90 452.032 452.032 452.032
91 455.004 455.004 455.004
92 457.976 457.976 457.976
93 460.948 460.948 460.948
94 463.921 463.921 463.921
95 466.893 466.893 466.893
96 469.865 469.865 469.865
97 472.837 472.837 472.837
98 475.81 475.81 475.81
99 478.782 478.782 478.782
100 481.754 481.754 481.754
101 484.726 484.726 484.726
102 487.699 487.699 487.699
103 490.671 490.671 490.671
104 493.643 493.643 493.643
105 496.616 496.616 496.616
106 499.588 499.588 499.588
107 502.56 502.56 502.56
108 505.532 505.532 505.532
109 508.505 508.505 508.505
110 511.477 511.477 511.477
111 514.449 514.449 514.449
112 517.421 517.421 517.421
113 520.394 520.394 520.394
114 523.366 523.366 523.366
115 526.338 526.338 526.338
116 529.31 529.31 529.31
117 532.283 532.283 532.283
118 535.255 535.255 535.255
119 538.227 538.227 538.227
120 541.2 541.2 541.2
121 544.172 544.172 544.172
122 547.144 547.144 547.144
123 550.116 550.116 550.116
124 553.089 553.089 553.089
125 556.061 556.061 556.061
126 559.033 559.033 559.033
127 562.005 562.005 562.005
128 564.978 564.978 564.978
129 567.95 567.95 567.95
130 570.922 570.922 570.922
131 573.894 573.894 573.894
132 576.867 576.867 576.867
133 579.839 579.839 579.839
134 582.811 582.811 582.811
135 585.783 585.783 585.783
136 588.756 588.756 588.756
137 591.727 591.727 591.727
138 594.682 594.682 594.682
139 597.507 597.507 597.507
140 599.645 599.645 599.645
ITEM: TIMESTEP
20
ITEM: NUMBER OF ATOMS
140
ITEM: BOX BOUNDS pp pp pp
0.0000000000000000e+00 7.5000000000000000e+02
0.0000000000000000e+00 7.5000000000000000e+02
0.0000000000000000e+00 7.5000000000000000e+02
ITEM: ATOMS id x y z
1 189.5 189.5 189.5
2 191.122 191.122 191.122
3 193.609 193.609 193.609
4 196.449 196.449 196.449
5 199.394 199.394 199.394
6 202.362 202.362 202.362
7 205.334 205.334 205.334
8 208.306 208.306 208.306
9 211.278 211.278 211.278
10 214.25 214.25 214.25
11 217.223 217.223 217.223
12 220.195 220.195 220.195
13 223.167 223.167 223.167
14 226.139 226.139 226.139
15 229.112 229.112 229.112
16 232.084 232.084 232.084
17 235.056 235.056 235.056
18 238.029 238.029 238.029
19 241.001 241.001 241.001
20 243.973 243.973 243.973
21 246.945 246.945 246.945
22 249.918 249.918 249.918
23 252.89 252.89 252.89
24 255.862 255.862 255.862
25 258.834 258.834 258.834
26 261.807 261.807 261.807
27 264.779 264.779 264.779
28 267.751 267.751 267.751
29 270.723 270.723 270.723
30 273.696 273.696 273.696
31 276.668 276.668 276.668
32 279.64 279.64 279.64
33 282.612 282.612 282.612
34 285.585 285.585 285.585
35 288.557 288.557 288.557
36 291.529 291.529 291.529
37 294.502 294.502 294.502
38 297.474 297.474 297.474
39 300.446 300.446 300.446
40 303.418 303.418 303.418
41 306.391 306.391 306.391
42 309.363 309.363 309.363
43 312.335 312.335 312.335
44 315.307 315.307 315.307
45 318.28 318.28 318.28
46 321.252 321.252 321.252
47 324.224 324.224 324.224
48 327.196 327.196 327.196
49 330.169 330.169 330.169
50 333.141 333.141 333.141
51 336.113 336.113 336.113
52 339.086 339.086 339.086
53 342.058 342.058 342.058
54 345.03 345.03 345.03
55 348.002 348.002 348.002
56 350.975 350.975 350.975
57 353.947 353.947 353.947
58 356.919 356.919 356.919
59 359.891 359.891 359.891
60 362.864 362.864 362.864
61 365.836 365.836 365.836
62 368.808 368.808 368.808
63 371.78 371.78 371.78
64 374.753 374.753 374.753
65 377.725 377.725 377.725
66 380.697 380.697 380.697
67 383.669 383.669 383.669
68 386.642 386.642 386.642
69 389.614 389.614 389.614
70 392.586 392.586 392.586
71 395.559 395.559 395.559
72 398.531 398.531 398.531
73 401.503 401.503 401.503
74 404.475 404.475 404.475
75 407.448 407.448 407.448
76 410.42 410.42 410.42
77 413.392 413.392 413.392
78 416.364 416.364 416.364
79 419.337 419.337 419.337
80 422.309 422.309 422.309
81 425.281 425.281 425.281
82 428.253 428.253 428.253
83 431.226 431.226 431.226
84 434.198 434.198 434.198
85 437.17 437.17 437.17
86 440.143 440.143 440.143
87 443.115 443.115 443.115
88 446.087 446.087 446.087
89 449.059 449.059 449.059
90 452.032 452.032 452.032
91 455.004 455.004 455.004
92 457.976 457.976 457.976
93 460.948 460.948 460.948
94 463.921 463.921 463.921
95 466.893 466.893 466.893
96 469.865 469.865 469.865
97 472.837 472.837 472.837
98 475.81 475.81 475.81
99 478.782 478.782 478.782
100 481.754 481.754 481.754
101 484.726 484.726 484.726
102 487.699 487.699 487.699
103 490.671 490.671 490.671
104 493.643 493.643 493.643
105 496.616 496.616 496.616
106 499.588 499.588 499.588
107 502.56 502.56 502.56
108 505.532 505.532 505.532
109 508.505 508.505 508.505
110 511.477 511.477 511.477
111 514.449 514.449 514.449
112 517.421 517.421 517.421
113 520.394 520.394 520.394
114 523.366 523.366 523.366
115 526.338 526.338 526.338
116 529.31 529.31 529.31
117 532.283 532.283 532.283
118 535.255 535.255 535.255
119 538.227 538.227 538.227
120 541.2 541.2 541.2
121 544.172 544.172 544.172
122 547.144 547.144 547.144
123 550.116 550.116 550.116
124 553.089 553.089 553.089
125 556.061 556.061 556.061
126 559.033 559.033 559.033
127 562.005 562.005 562.005
128 564.978 564.978 564.978
129 567.95 567.95 567.95
130 570.922 570.922 570.922
131 573.894 573.894 573.894
132 576.867 576.867 576.867
133 579.839 579.839 579.839
134 582.811 582.811 582.811
135 585.783 585.783 585.783
136 588.751 588.751 588.751
137 591.695 591.695 591.695
138 594.536 594.536 594.536
139 597.022 597.022 597.022
140 598.645 598.645 598.645
ITEM: TIMESTEP
30
ITEM: NUMBER OF ATOMS
140
ITEM: BOX BOUNDS pp pp pp
0.0000000000000000e+00 7.5000000000000000e+02
0.0000000000000000e+00 7.5000000000000000e+02
0.0000000000000000e+00 7.5000000000000000e+02
ITEM: ATOMS id x y z
1 190.5 190.5 190.5
2 191.811 191.811 191.811
3 193.952 193.952 193.952
4 196.58 196.58 196.58
5 199.434 199.434 199.434
6 202.372 202.372 202.372
7 205.336 205.336 205.336
8 208.306 208.306 208.306
9 211.278 211.278 211.278
10 214.25 214.25 214.25
11 217.223 217.223 217.223
12 220.195 220.195 220.195
13 223.167 223.167 223.167
14 226.139 226.139 226.139
15 229.112 229.112 229.112
16 232.084 232.084 232.084
17 235.056 235.056 235.056
18 238.029 238.029 238.029
19 241.001 241.001 241.001
20 243.973 243.973 243.973
21 246.945 246.945 246.945
22 249.918 249.918 249.918
23 252.89 252.89 252.89
24 255.862 255.862 255.862
25 258.834 258.834 258.834
26 261.807 261.807 261.807
27 264.779 264.779 264.779
28 267.751 267.751 267.751
29 270.723 270.723 270.723
30 273.696 273.696 273.696
31 276.668 276.668 276.668
32 279.64 279.64 279.64
33 282.612 282.612 282.612
34 285.585 285.585 285.585
35 288.557 288.557 288.557
36 291.529 291.529 291.529
37 294.502 294.502 294.502
38 297.474 297.474 297.474
39 300.446 300.446 300.446
40 303.418 303.418 303.418
41 306.391 306.391 306.391
42 309.363 309.363 309.363
43 312.335 312.335 312.335
44 315.307 315.307 315.307
45 318.28 318.28 318.28
46 321.252 321.252 321.252
47 324.224 324.224 324.224
48 327.196 327.196 327.196
49 330.169 330.169 330.169
50 333.141 333.141 333.141
51 336.113 336.113 336.113
52 339.086 339.086 339.086
53 342.058 342.058 342.058
54 345.03 345.03 345.03
55 348.002 348.002 348.002
56 350.975 350.975 350.975
57 353.947 353.947 353.947
58 356.919 356.919 356.919
59 359.891 359.891 359.891
60 362.864 362.864 362.864
61 365.836 365.836 365.836
62 368.808 368.808 368.808
63 371.78 371.78 371.78
64 374.753 374.753 374.753
65 377.725 377.725 377.725
66 380.697 380.697 380.697
67 383.669 383.669 383.669
68 386.642 386.642 386.642
69 389.614 389.614 389.614
70 392.586 392.586 392.586
71 395.559 395.559 395.559
72 398.531 398.531 398.531
73 401.503 401.503 401.503
74 404.475 404.475 404.475
75 407.448 407.448 407.448
76 410.42 410.42 410.42
77 413.392 413.392 413.392
78 416.364 416.364 416.364
79 419.337 419.337 419.337
80 422.309 422.309 422.309
81 425.281 425.281 425.281
82 428.253 428.253 428.253
83 431.226 431.226 431.226
84 434.198 434.198 434.198
85 437.17 437.17 437.17
86 440.143 440.143 440.143
87 443.115 443.115 443.115
88 446.087 446.087 446.087
89 449.059 449.059 449.059
90 452.032 452.032 452.032
91 455.004 455.004 455.004
92 457.976 457.976 457.976
93 460.948 460.948 460.948
94 463.921 463.921 463.921
95 466.893 466.893 466.893
96 469.865 469.865 469.865
97 472.837 472.837 472.837
98 475.81 475.81 475.81
99 478.782 478.782 478.782
100 481.754 481.754 481.754
101 484.726 484.726 484.726
102 487.699 487.699 487.699
103 490.671 490.671 490.671
104 493.643 493.643 493.643
105 496.616 496.616 496.616
106 499.588 499.588 499.588
107 502.56 502.56 502.56
108 505.532 505.532 505.532
109 508.505 508.505 508.505
110 511.477 511.477 511.477
111 514.449 514.449 514.449
112 517.421 517.421 517.421
113 520.394 520.394 520.394
114 523.366 523.366 523.366
115 526.338 526.338 526.338
116 529.31 529.31 529.31
117 532.283 532.283 532.283
118 535.255 535.255 535.255
119 538.227 538.227 538.227
120 541.2 541.2 541.2
121 544.172 544.172 544.172
122 547.144 547.144 547.144
123 550.116 550.116 550.116
124 553.089 553.089 553.089
125 556.061 556.061 556.061
126 559.033 559.033 559.033
127 562.005 562.005 562.005
128 564.978 564.978 564.978
129 567.95 567.95 567.95
130 570.922 570.922 570.922
131 573.894 573.894 573.894
132 576.867 576.867 576.867
133 579.839 579.839 579.839
134 582.809 582.809 582.809
135 585.773 585.773 585.773
136 588.711 588.711 588.711
137 591.565 591.565 591.565
138 594.193 594.193 594.193
139 596.334 596.334 596.334
140 597.645 597.645 597.645
ITEM: TIMESTEP
40
ITEM: NUMBER OF ATOMS
140
ITEM: BOX BOUNDS pp pp pp
0.0000000000000000e+00 7.5000000000000000e+02
0.0000000000000000e+00 7.5000000000000000e+02
0.0000000000000000e+00 7.5000000000000000e+02
ITEM: ATOMS id x y z
1 191.5 191.5 191.5
2 192.61 192.61 192.61
3 194.468 194.468 194.468
4 196.854 196.854 196.854
5 199.555 199.555 199.555
6 202.417 202.417 202.417
7 205.35 205.35 205.35
8 208.31 208.31 208.31
9 211.279 211.279 211.279
10 214.251 214.251 214.251
11 217.223 217.223 217.223
12 220.195 220.195 220.195
13 223.167 223.167 223.167
14 226.139 226.139 226.139
15 229.112 229.112 229.112
16 232.084 232.084 232.084
17 235.056 235.056 235.056
18 238.029 238.029 238.029
19 241.001 241.001 241.001
20 243.973 243.973 243.973
21 246.945 246.945 246.945
22 249.918 249.918 249.918
23 252.89 252.89 252.89
24 255.862 255.862 255.862
25 258.834 258.834 258.834
26 261.807 261.807 261.807
27 264.779 264.779 264.779
28 267.751 267.751 267.751
29 270.723 270.723 270.723
30 273.696 273.696 273.696
31 276.668 276.668 276.668
32 279.64 279.64 279.64
33 282.612 282.612 282.612
34 285.585 285.585 285.585
35 288.557 288.557 288.557
36 291.529 291.529 291.529
37 294.502 294.502 294.502
38 297.474 297.474 297.474
39 300.446 300.446 300.446
40 303.418 303.418 303.418
41 306.391 306.391 306.391
42 309.363 309.363 309.363
43 312.335 312.335 312.335
44 315.307 315.307 315.307
45 318.28 318.28 318.28
46 321.252 321.252 321.252
47 324.224 324.224 324.224
48 327.196 327.196 327.196
49 330.169 330.169 330.169
50 333.141 333.141 333.141
51 336.113 336.113 336.113
52 339.086 339.086 339.086
53 342.058 342.058 342.058
54 345.03 345.03 345.03
55 348.002 348.002 348.002
56 350.975 350.975 350.975
57 353.947 353.947 353.947
58 356.919 356.919 356.919
59 359.891 359.891 359.891
60 362.864 362.864 362.864
61 365.836 365.836 365.836
62 368.808 368.808 368.808
63 371.78 371.78 371.78
64 374.753 374.753 374.753
65 377.725 377.725 377.725
66 380.697 380.697 380.697
67 383.669 383.669 383.669
68 386.642 386.642 386.642
69 389.614 389.614 389.614
70 392.586 392.586 392.586
71 395.559 395.559 395.559
72 398.531 398.531 398.531
73 401.503 401.503 401.503
74 404.475 404.475 404.475
75 407.448 407.448 407.448
76 410.42 410.42 410.42
77 413.392 413.392 413.392
78 416.364 416.364 416.364
79 419.337 419.337 419.337
80 422.309 422.309 422.309
81 425.281 425.281 425.281
82 428.253 428.253 428.253
83 431.226 431.226 431.226
84 434.198 434.198 434.198
85 437.17 437.17 437.17
86 440.143 440.143 440.143
87 443.115 443.115 443.115
88 446.087 446.087 446.087
89 449.059 449.059 449.059
90 452.032 452.032 452.032
91 455.004 455.004 455.004
92 457.976 457.976 457.976
93 460.948 460.948 460.948
94 463.921 463.921 463.921
95 466.893 466.893 466.893
96 469.865 469.865 469.865
97 472.837 472.837 472.837
98 475.81 475.81 475.81
99 478.782 478.782 478.782
100 481.754 481.754 481.754
101 484.726 484.726 484.726
102 487.699 487.699 487.699
103 490.671 490.671 490.671
104 493.643 493.643 493.643
105 496.616 496.616 496.616
106 499.588 499.588 499.588
107 502.56 502.56 502.56
108 505.532 505.532 505.532
109 508.505 508.505 508.505
110 511.477 511.477 511.477
111 514.449 514.449 514.449
112 517.421 517.421 517.421
113 520.394 520.394 520.394
114 523.366 523.366 523.366
115 526.338 526.338 526.338
116 529.31 529.31 529.31
117 532.283 532.283 532.283
118 535.255 535.255 535.255
119 538.227 538.227 538.227
120 541.2 541.2 541.2
121 544.172 544.172 544.172
122 547.144 547.144 547.144
123 550.116 550.116 550.116
124 553.089 553.089 553.089
125 556.061 556.061 556.061
126 559.033 559.033 559.033
127 562.005 562.005 562.005
128 564.978 564.978 564.978
129 567.95 567.95 567.95
130 570.922 570.922 570.922
131 573.894 573.894 573.894
132 576.866 576.866 576.866
133 579.834 579.834 579.834
134 582.794 582.794 582.794
135 585.728 585.728 585.728
136 588.59 588.59 588.59
137 591.291 591.291 591.291
138 593.677 593.677 593.677
139 595.535 595.535 595.535
140 596.645 596.645 596.645
ITEM: TIMESTEP
50
ITEM: NUMBER OF ATOMS
140
ITEM: BOX BOUNDS pp pp pp
0.0000000000000000e+00 7.5000000000000000e+02
0.0000000000000000e+00 7.5000000000000000e+02
0.0000000000000000e+00 7.5000000000000000e+02
ITEM: ATOMS id x y z
1 192.5 192.5 192.5
2 193.471 193.471 193.471
3 195.109 195.109 195.109
4 197.267 197.267 197.267
5 199.788 199.788 199.788
6 202.533 202.533 202.533
7 205.401 205.401 205.401
8 208.33 208.33 208.33
9 211.286 211.286 211.286
10 214.253 214.253 214.253
11 217.223 217.223 217.223
12 220.195 220.195 220.195
13 223.167 223.167 223.167
14 226.139 226.139 226.139
15 229.112 229.112 229.112
16 232.084 232.084 232.084
17 235.056 235.056 235.056
18 238.029 238.029 238.029
19 241.001 241.001 241.001
20 243.973 243.973 243.973
21 246.945 246.945 246.945
22 249.918 249.918 249.918
23 252.89 252.89 252.89
24 255.862 255.862 255.862
25 258.834 258.834 258.834
26 261.807 261.807 261.807
27 264.779 264.779 264.779
28 267.751 267.751 267.751
29 270.723 270.723 270.723
30 273.696 273.696 273.696
31 276.668 276.668 276.668
32 279.64 279.64 279.64
33 282.612 282.612 282.612
34 285.585 285.585 285.585
35 288.557 288.557 288.557
36 291.529 291.529 291.529
37 294.502 294.502 294.502
38 297.474 297.474 297.474
39 300.446 300.446 300.446
40 303.418 303.418 303.418
41 306.391 306.391 306.391
42 309.363 309.363 309.363
43 312.335 312.335 312.335
44 315.307 315.307 315.307
45 318.28 318.28 318.28
46 321.252 321.252 321.252
47 324.224 324.224 324.224
48 327.196 327.196 327.196
49 330.169 330.169 330.169
50 333.141 333.141 333.141
51 336.113 336.113 336.113
52 339.086 339.086 339.086
53 342.058 342.058 342.058
54 345.03 345.03 345.03
55 348.002 348.002 348.002
56 350.975 350.975 350.975
57 353.947 353.947 353.947
58 356.919 356.919 356.919
59 359.891 359.891 359.891
60 362.864 362.864 362.864
61 365.836 365.836 365.836
62 368.808 368.808 368.808
63 371.78 371.78 371.78
64 374.753 374.753 374.753
65 377.725 377.725 377.725
66 380.697 380.697 380.697
67 383.669 383.669 383.669
68 386.642 386.642 386.642
69 389.614 389.614 389.614
70 392.586 392.586 392.586
71 395.559 395.559 395.559
72 398.531 398.531 398.531
73 401.503 401.503 401.503
74 404.475 404.475 404.475
75 407.448 407.448 407.448
76 410.42 410.42 410.42
77 413.392 413.392 413.392
78 416.364 416.364 416.364
79 419.337 419.337 419.337
80 422.309 422.309 422.309
81 425.281 425.281 425.281
82 428.253 428.253 428.253
83 431.226 431.226 431.226
84 434.198 434.198 434.198
85 437.17 437.17 437.17
86 440.143 440.143 440.143
87 443.115 443.115 443.115
88 446.087 446.087 446.087
89 449.059 449.059 449.059
90 452.032 452.032 452.032
91 455.004 455.004 455.004
92 457.976 457.976 457.976
93 460.948 460.948 460.948
94 463.921 463.921 463.921
95 466.893 466.893 466.893
96 469.865 469.865 469.865
97 472.837 472.837 472.837
98 475.81 475.81 475.81
99 478.782 478.782 478.782
100 481.754 481.754 481.754
101 484.726 484.726 484.726
102 487.699 487.699 487.699
103 490.671 490.671 490.671
104 493.643 493.643 493.643
105 496.616 496.616 496.616
106 499.588 499.588 499.588
107 502.56 502.56 502.56
108 505.532 505.532 505.532
109 508.505 508.505 508.505
110 511.477 511.477 511.477
111 514.449 514.449 514.449
112 517.421 517.421 517.421
113 520.394 520.394 520.394
114 523.366 523.366 523.366
115 526.338 526.338 526.338
116 529.31 529.31 529.31
117 532.283 532.283 532.283
118 535.255 535.255 535.255
119 538.227 538.227 538.227
120 541.2 541.2 541.2
121 544.172 544.172 544.172
122 547.144 547.144 547.144
123 550.116 550.116 550.116
124 553.089 553.089 553.089
125 556.061 556.061 556.061
126 559.033 559.033 559.033
127 562.005 562.005 562.005
128 564.978 564.978 564.978
129 567.95 567.95 567.95
130 570.922 570.922 570.922
131 573.892 573.892 573.892
132 576.859 576.859 576.859
133 579.815 579.815 579.815
134 582.744 582.744 582.744
135 585.612 585.612 585.612
136 588.357 588.357 588.357
137 590.878 590.878 590.878
138 593.036 593.036 593.036
139 594.673 594.673 594.673
140 595.645 595.645 595.645
ITEM: TIMESTEP
60
ITEM: NUMBER OF ATOMS
140
ITEM: BOX BOUNDS pp pp pp
0.0000000000000000e+00 7.5000000000000000e+02
0.0000000000000000e+00 7.5000000000000000e+02
0.0000000000000000e+00 7.5000000000000000e+02
ITEM: ATOMS id x y z
1 193.5 193.5 193.5
2 194.37 194.37 194.37
3 195.834 195.834 195.834
4 197.795 197.795 197.795
5 200.134 200.134 200.134
6 202.738 202.738 202.738
7 205.512 205.512 205.512
8 208.385 208.385 208.385
9 211.311 211.311 211.311
10 214.263 214.263 214.263
11 217.227 217.227 217.227
12 220.196 220.196 220.196
13 223.168 223.168 223.168
14 226.14 226.14 226.14
15 229.112 229.112 229.112
16 232.084 232.084 232.084
17 235.056 235.056 235.056
18 238.029 238.029 238.029
19 241.001 241.001 241.001
20 243.973 243.973 243.973
21 246.945 246.945 246.945
22 249.918 249.918 249.918
23 252.89 252.89 252.89
24 255.862 255.862 255.862
25 258.834 258.834 258.834
26 261.807 261.807 261.807
27 264.779 264.779 264.779
28 267.751 267.751 267.751
29 270.723 270.723 270.723
30 273.696 273.696 273.696
31 276.668 276.668 276.668
32 279.64 279.64 279.64
33 282.612 282.612 282.612
34 285.585 285.585 285.585
35 288.557 288.557 288.557
36 291.529 291.529 291.529
37 294.502 294.502 294.502
38 297.474 297.474 297.474
39 300.446 300.446 300.446
40 303.418 303.418 303.418
41 306.391 306.391 306.391
42 309.363 309.363 309.363
43 312.335 312.335 312.335
44 315.307 315.307 315.307
45 318.28 318.28 318.28
46 321.252 321.252 321.252
47 324.224 324.224 324.224
48 327.196 327.196 327.196
49 330.169 330.169 330.169
50 333.141 333.141 333.141
51 336.113 336.113 336.113
52 339.086 339.086 339.086
53 342.058 342.058 342.058
54 345.03 345.03 345.03
55 348.002 348.002 348.002
56 350.975 350.975 350.975
57 353.947 353.947 353.947
58 356.919 356.919 356.919
59 359.891 359.891 359.891
60 362.864 362.864 362.864
61 365.836 365.836 365.836
62 368.808 368.808 368.808
63 371.78 371.78 371.78
64 374.753 374.753 374.753
65 377.725 377.725 377.725
66 380.697 380.697 380.697
67 383.669 383.669 383.669
68 386.642 386.642 386.642
69 389.614 389.614 389.614
70 392.586 392.586 392.586
71 395.559 395.559 395.559
72 398.531 398.531 398.531
73 401.503 401.503 401.503
74 404.475 404.475 404.475
75 407.448 407.448 407.448
76 410.42 410.42 410.42
77 413.392 413.392 413.392
78 416.364 416.364 416.364
79 419.337 419.337 419.337
80 422.309 422.309 422.309
81 425.281 425.281 425.281
82 428.253 428.253 428.253
83 431.226 431.226 431.226
84 434.198 434.198 434.198
85 437.17 437.17 437.17
86 440.143 440.143 440.143
87 443.115 443.115 443.115
88 446.087 446.087 446.087
89 449.059 449.059 449.059
90 452.032 452.032 452.032
91 455.004 455.004 455.004
92 457.976 457.976 457.976
93 460.948 460.948 460.948
94 463.921 463.921 463.921
95 466.893 466.893 466.893
96 469.865 469.865 469.865
97 472.837 472.837 472.837
98 475.81 475.81 475.81
99 478.782 478.782 478.782
100 481.754 481.754 481.754
101 484.726 484.726 484.726
102 487.699 487.699 487.699
103 490.671 490.671 490.671
104 493.643 493.643 493.643
105 496.616 496.616 496.616
106 499.588 499.588 499.588
107 502.56 502.56 502.56
108 505.532 505.532 505.532
109 508.505 508.505 508.505
110 511.477 511.477 511.477
111 514.449 514.449 514.449
112 517.421 517.421 517.421
113 520.394 520.394 520.394
114 523.366 523.366 523.366
115 526.338 526.338 526.338
116 529.31 529.31 529.31
117 532.283 532.283 532.283
118 535.255 535.255 535.255
119 538.227 538.227 538.227
120 541.2 541.2 541.2
121 544.172 544.172 544.172
122 547.144 547.144 547.144
123 550.116 550.116 550.116
124 553.089 553.089 553.089
125 556.061 556.061 556.061
126 559.033 559.033 559.033
127 562.005 562.005 562.005
128 564.977 564.977 564.977
129 567.948 567.948 567.948
130 570.918 570.918 570.918
131 573.882 573.882 573.882
132 576.834 576.834 576.834
133 579.76 579.76 579.76
134 582.632 582.632 582.632
135 585.405 585.405 585.405
136 588.01 588.01 588.01
137 590.35 590.35 590.35
138 592.311 592.311 592.311
139 593.776 593.776 593.776
140 594.645 594.645 594.645
ITEM: TIMESTEP
70
ITEM: NUMBER OF ATOMS
140
ITEM: BOX BOUNDS pp pp pp
0.0000000000000000e+00 7.5000000000000000e+02
0.0000000000000000e+00 7.5000000000000000e+02
0.0000000000000000e+00 7.5000000000000000e+02
ITEM: ATOMS id x y z
1 194.5 194.5 194.5
2 195.293 195.293 195.293
3 196.618 196.618 196.618
4 198.41 198.41 198.41
5 200.579 200.579 200.579
6 203.036 203.036 203.036
7 205.698 205.698 205.698
8 208.492 208.492 208.492
9 211.369 211.369 211.369
10 214.292 214.292 214.292
11 217.241 217.241 217.241
12 220.202 220.202 220.202
13 223.17 223.17 223.17
14 226.14 226.14 226.14
15 229.112 229.112 229.112
16 232.084 232.084 232.084
17 235.056 235.056 235.056
18 238.029 238.029 238.029
19 241.001 241.001 241.001
20 243.973 243.973 243.973
21 246.945 246.945 246.945
22 249.918 249.918 249.918
23 252.89 252.89 252.89
24 255.862 255.862 255.862
25 258.834 258.834 258.834
26 261.807 261.807 261.807
27 264.779 264.779 264.779
28 267.751 267.751 267.751
29 270.723 270.723 270.723
30 273.696 273.696 273.696
31 276.668 276.668 276.668
32 279.64 279.64 279.64
33 282.612 282.612 282.612
34 285.585 285.585 285.585
35 288.557 288.557 288.557
36 291.529 291.529 291.529
37 294.502 294.502 294.502
38 297.474 297.474 297.474
39 300.446 300.446 300.446
40 303.418 303.418 303.418
41 306.391 306.391 306.391
42 309.363 309.363 309.363
43 312.335 312.335 312.335
44 315.307 315.307 315.307
45 318.28 318.28 318.28
46 321.252 321.252 321.252
47 324.224 324.224 324.224
48 327.196 327.196 327.196
49 330.169 330.169 330.169
50 333.141 333.141 333.141
51 336.113 336.113 336.113
52 339.086 339.086 339.086
53 342.058 342.058 342.058
54 345.03 345.03 345.03
55 348.002 348.002 348.002
56 350.975 350.975 350.975
57 353.947 353.947 353.947
58 356.919 356.919 356.919
59 359.891 359.891 359.891
60 362.864 362.864 362.864
61 365.836 365.836 365.836
62 368.808 368.808 368.808
63 371.78 371.78 371.78
64 374.753 374.753 374.753
65 377.725 377.725 377.725
66 380.697 380.697 380.697
67 383.669 383.669 383.669
68 386.642 386.642 386.642
69 389.614 389.614 389.614