LAMMPS (2 Aug 2023 - Update 1)
OMP_NUM_THREADS environment is not set. Defaulting to 1 thread. (src/comm.cpp:98)
  using 1 OpenMP thread(s) per MPI task
units real
dimension 3
boundary p p p

atom_style full
pair_style lj/cut/coul/debye 0.1 24.1 15.0
bond_style harmonic
angle_style harmonic
dihedral_style quadratic
read_data polymer.data
Reading data file ...
  orthogonal box = (0 0 0) to (750 750 750)
  1 by 1 by 1 MPI processor grid
  reading atoms ...
  140 atoms
  reading velocities ...
  140 velocities
  scanning bonds ...
  1 = max bonds/atom
  scanning angles ...
  1 = max angles/atom
  scanning dihedrals ...
  1 = max dihedrals/atom
  reading bonds ...
  139 bonds
  reading angles ...
  138 angles
  reading dihedrals ...
  137 dihedrals
Finding 1-2 1-3 1-4 neighbors ...
  special bond factors lj:    0        0        0       
  special bond factors coul:  0        0        0       
     2 = max # of 1-2 neighbors
     2 = max # of 1-3 neighbors
     4 = max # of 1-4 neighbors
     6 = max # of special neighbors
  special bonds CPU = 0.000 seconds
  read_data CPU = 0.005 seconds

pair_coeff * * 2.5 3.80
dielectric 80.0

thermo 100
thermo_style custom step temp pe press vol lx density
dump mymindump all custom 10 dump.min.lammpstrj id x y z

# fix mynpt all npt temp 300.0 300.0 100.0 iso 0.0 0.0 10000.0
fix mynve all nve
fix rgfix all spring/rg 650.0 30
minimize 0 0 10000 10000
Generated 0 of 9730 mixed pair_coeff terms from geometric mixing rule
Neighbor list info ...
  update: every = 1 steps, delay = 0 steps, check = yes
  max neighbors/atom: 2000, page size: 100000
  master list distance cutoff = 26.1
  ghost atom cutoff = 26.1
  binsize = 13.05, bins = 58 58 58
  1 neighbor lists, perpetual/occasional/extra = 1 0 0
  (1) pair lj/cut/coul/debye, perpetual
      attributes: half, newton on
      pair build: half/bin/newton
      stencil: half/bin/3d
      bin: standard
Per MPI rank memory allocation (min/avg/max) = 9.085 | 9.085 | 9.085 Mbytes
   Step          Temp          PotEng         Press          Volume           Lx          Density    
         0   702854.04      3827.2135      31.106875      4.21875e+08    750            4.6917564e-05
       100   702854.04      3534.4117      31.140215      4.21875e+08    750            4.6917564e-05
       200   702854.04      3286.695       31.166356      4.21875e+08    750            4.6917564e-05
       300   702854.04      3108.4863      31.183813      4.21875e+08    750            4.6917564e-05
       400   702854.04      2928.1561      31.204697      4.21875e+08    750            4.6917564e-05
       500   702854.04      2797.3412      31.217163      4.21875e+08    750            4.6917564e-05
       600   702854.04      2651.8226      31.23079       4.21875e+08    750            4.6917564e-05
       700   702854.04      2517.6951      31.24785       4.21875e+08    750            4.6917564e-05
       800   702854.04      2384.4601      31.261433      4.21875e+08    750            4.6917564e-05
       900   702854.04      2247.9897      31.270979      4.21875e+08    750            4.6917564e-05
      1000   702854.04      2104.2982      31.289572      4.21875e+08    750            4.6917564e-05
      1100   702854.04      1974.5378      31.302468      4.21875e+08    750            4.6917564e-05
      1200   702854.04      1838.2722      31.315123      4.21875e+08    750            4.6917564e-05
      1300   702854.04      1696.2943      31.330303      4.21875e+08    750            4.6917564e-05
      1400   702854.04      1564.0279      31.34472       4.21875e+08    750            4.6917564e-05
      1500   702854.04      1420.5287      31.358564      4.21875e+08    750            4.6917564e-05
      1600   702854.04      1288.4359      31.372707      4.21875e+08    750            4.6917564e-05
      1700   702854.04      1168.8445      31.385186      4.21875e+08    750            4.6917564e-05
      1800   702854.04      1039.164       31.397133      4.21875e+08    750            4.6917564e-05
      1900   702854.04      911.42665      31.411091      4.21875e+08    750            4.6917564e-05
      2000   702854.04      778.08733      31.423254      4.21875e+08    750            4.6917564e-05
      2100   702854.04      665.58232      31.433706      4.21875e+08    750            4.6917564e-05
      2200   702854.04      549.26985      31.446134      4.21875e+08    750            4.6917564e-05
      2300   702854.04      435.62565      31.45644       4.21875e+08    750            4.6917564e-05
      2400   702854.04      312.48544      31.466026      4.21875e+08    750            4.6917564e-05
      2500   702854.04      194.36729      31.477074      4.21875e+08    750            4.6917564e-05
      2600   702854.04      88.113293      31.486681      4.21875e+08    750            4.6917564e-05
      2700   702854.04     -40.018961      31.496309      4.21875e+08    750            4.6917564e-05
      2800   702854.04     -155.72059      31.503241      4.21875e+08    750            4.6917564e-05
      2900   702854.04     -261.07391      31.512217      4.21875e+08    750            4.6917564e-05
      3000   702854.04     -359.20066      31.514542      4.21875e+08    750            4.6917564e-05
      3100   702854.04     -479.90376      31.526883      4.21875e+08    750            4.6917564e-05
      3200   702854.04     -551.80803      31.553816      4.21875e+08    750            4.6917564e-05
      3300   702854.04     -551.81144      31.554645      4.21875e+08    750            4.6917564e-05
      3400   702854.04     -551.81144      31.554646      4.21875e+08    750            4.6917564e-05
      3500   702854.04     -551.81144      31.554646      4.21875e+08    750            4.6917564e-05
      3600   702854.04     -551.81144      31.554646      4.21875e+08    750            4.6917564e-05
      3700   702854.04     -551.81144      31.554646      4.21875e+08    750            4.6917564e-05
      3800   702854.04     -551.81144      31.554646      4.21875e+08    750            4.6917564e-05
      3900   702854.04     -551.81144      31.554646      4.21875e+08    750            4.6917564e-05
      4000   702854.04     -551.81144      31.554646      4.21875e+08    750            4.6917564e-05
      4100   702854.04     -551.81144      31.554646      4.21875e+08    750            4.6917564e-05
      4200   702854.04     -551.81144      31.554646      4.21875e+08    750            4.6917564e-05
      4300   702854.04     -551.81144      31.554646      4.21875e+08    750            4.6917564e-05
      4400   702854.04     -551.81144      31.554646      4.21875e+08    750            4.6917564e-05
      4500   702854.04     -551.81144      31.554646      4.21875e+08    750            4.6917564e-05
      4600   702854.04     -551.81144      31.554646      4.21875e+08    750            4.6917564e-05
      4700   702854.04     -551.81144      31.554646      4.21875e+08    750            4.6917564e-05
      4800   702854.04     -551.81144      31.554646      4.21875e+08    750            4.6917564e-05
      4900   702854.04     -551.81144      31.554646      4.21875e+08    750            4.6917564e-05
      5000   702854.04     -551.81144      31.554646      4.21875e+08    750            4.6917564e-05
      5100   702854.04     -551.81144      31.554646      4.21875e+08    750            4.6917564e-05
      5200   702854.04     -551.81144      31.554646      4.21875e+08    750            4.6917564e-05
      5300   702854.04     -551.81144      31.554646      4.21875e+08    750            4.6917564e-05
      5400   702854.04     -551.81144      31.554646      4.21875e+08    750            4.6917564e-05
      5500   702854.04     -551.81144      31.554646      4.21875e+08    750            4.6917564e-05
      5600   702854.04     -551.81144      31.554646      4.21875e+08    750            4.6917564e-05
      5700   702854.04     -551.81144      31.554646      4.21875e+08    750            4.6917564e-05
      5800   702854.04     -551.81144      31.554646      4.21875e+08    750            4.6917564e-05
      5870   702854.04     -551.81144      31.554646      4.21875e+08    750            4.6917564e-05
Loop time of 0.762556 on 1 procs for 5870 steps with 140 atoms

99.3% CPU use with 1 MPI tasks x 1 OpenMP threads

Minimization stats:
  Stopping criterion = max force evaluations
  Energy initial, next-to-last, final = 
      3827.21346623459  -551.811439639612  -551.811439639612
  Force two-norm initial, final = 16.333375 1.9487749e-11
  Force max component initial, final = 6.6680726 2.1797018e-12
  Final line search alpha, max atom move = 1 2.1797018e-12
  Iterations, force evaluations = 5870 10000

MPI task timing breakdown:
Section |  min time  |  avg time  |  max time  |%varavg| %total
---------------------------------------------------------------
Pair    | 0.43573    | 0.43573    | 0.43573    |   0.0 | 57.14
Bond    | 0.18836    | 0.18836    | 0.18836    |   0.0 | 24.70
Neigh   | 0.029139   | 0.029139   | 0.029139   |   0.0 |  3.82
Comm    | 0.001827   | 0.001827   | 0.001827   |   0.0 |  0.24
Output  | 0.086903   | 0.086903   | 0.086903   |   0.0 | 11.40
Modify  | 0          | 0          | 0          |   0.0 |  0.00
Other   |            | 0.0206     |            |       |  2.70

Nlocal:            140 ave         140 max         140 min
Histogram: 1 0 0 0 0 0 0 0 0 0
Nghost:              0 ave           0 max           0 min
Histogram: 1 0 0 0 0 0 0 0 0 0
Neighs:           2761 ave        2761 max        2761 min
Histogram: 1 0 0 0 0 0 0 0 0 0

Total # of neighbors = 2761
Ave neighs/atom = 19.721429
Ave special neighs/atom = 5.9142857
Neighbor list builds = 312
Dangerous builds = 0

undump mymindump
dump mydmp all custom 100 dump.lammpstrj id x y z

# replicate 3 3 4
# fix mydeform all deform 1 x final 0.0 2500.0 y final 0.0 2500.0 z final 0.0 2500.0 units box

# compute myRDF all rdf 50
# fix 1 all ave/time 100 1 100 c_myRDF[*] file tmp.rdf mode vector
fix mynve all nve
# fix mynpt all npt temp 300.0 300.0 100.0 iso 0.0 0.0 1000.0
fix mylgv all langevin 300.0 300.0 40 1321432
neigh_modify every 1 delay 5 check yes
timestep 0.005
run 100000
Generated 0 of 9730 mixed pair_coeff terms from geometric mixing rule
Per MPI rank memory allocation (min/avg/max) = 7.96 | 7.96 | 7.96 Mbytes
   Step          Temp          PotEng         Press          Volume           Lx          Density    
      5870   702854.04     -551.81144      31.554646      4.21875e+08    750            4.6917564e-05
      5900   697864.32     -550.74112      31.3312        4.21875e+08    750            4.6917564e-05
      6000   680782.7      -538.68328      30.572757      4.21875e+08    750            4.6917564e-05
      6100   663846.87     -510.25943      29.831894      4.21875e+08    750            4.6917564e-05
      6200   647030.4      -461.26956      29.110309      4.21875e+08    750            4.6917564e-05
      6300   630989.4      -383.78468      28.44282       4.21875e+08    750            4.6917564e-05
      6400   615022.36     -264.87411      27.806826      4.21875e+08    750            4.6917564e-05
      6500   599597.81     -82.762569      27.237916      4.21875e+08    750            4.6917564e-05
      6600   583940.17      197.55332      26.724591      4.21875e+08    750            4.6917564e-05
      6700   568412.37      629.98845      26.318815      4.21875e+08    750            4.6917564e-05
      6800   553010.49      1293.5577      26.072355      4.21875e+08    750            4.6917564e-05
      6900   537475.16      2286.5359      26.037724      4.21875e+08    750            4.6917564e-05
      7000   521143.95      3683.3367      26.232906      4.21875e+08    750            4.6917564e-05
      7100   504225.39      5417.7038      26.621754      4.21875e+08    750            4.6917564e-05
      7200   487800.93      7131.2128      27.014969      4.21875e+08    750            4.6917564e-05
      7300   472986.66      8253.7229      27.086449      4.21875e+08    750            4.6917564e-05
      7400   460684.69      8443.201       26.650953      4.21875e+08    750            4.6917564e-05
      7500   450568.15      7910.6271      25.832166      4.21875e+08    750            4.6917564e-05
      7600   441546.01      7147.9823      24.90525       4.21875e+08    750            4.6917564e-05
      7700   432194.6       6525.6249      24.051336      4.21875e+08    750            4.6917564e-05
      7800   422317.7       6184.3791      23.355753      4.21875e+08    750            4.6917564e-05
      7900   412226.54      6106.2008      22.82169       4.21875e+08    750            4.6917564e-05
      8000   401539.2       6200.8796      22.373095      4.21875e+08    750            4.6917564e-05
      8100   391541.41      6364.0473      21.998995      4.21875e+08    750            4.6917564e-05
      8200   381481.9       6508.0959      21.607834      4.21875e+08    750            4.6917564e-05
      8300   371816.98      6573.1562      21.180313      4.21875e+08    750            4.6917564e-05
      8400   363137.41      6529.2484      20.722969      4.21875e+08    750            4.6917564e-05
      8500   354545.56      6373.1641      20.193261      4.21875e+08    750            4.6917564e-05
      8600   346675.36      6122.3013      19.631129      4.21875e+08    750            4.6917564e-05
      8700   338776.67      5806.0961      19.022438      4.21875e+08    750            4.6917564e-05
      8800   331645.3       5456.3215      18.423974      4.21875e+08    750            4.6917564e-05
      8900   324404.2       5101.2027      17.815346      4.21875e+08    750            4.6917564e-05
      9000   317394.11      4765.5569      17.228511      4.21875e+08    750            4.6917564e-05
      9100   310269.5       4466.9221      16.659816      4.21875e+08    750            4.6917564e-05
      9200   303272.72      4215.7648      16.127345      4.21875e+08    750            4.6917564e-05
      9300   296484.56      4017.6015      15.638656      4.21875e+08    750            4.6917564e-05
      9400   289591.92      3872.5729      15.179976      4.21875e+08    750            4.6917564e-05
      9500   282717.77      3776.1665      14.753914      4.21875e+08    750            4.6917564e-05
      9600   275820         3722.8639      14.355087      4.21875e+08    750            4.6917564e-05
      9700   269354.38      3706.268       13.999791      4.21875e+08    750            4.6917564e-05
      9800   262591.3       3718.3865      13.650011      4.21875e+08    750            4.6917564e-05
      9900   256247.05      3752.6366      13.333572      4.21875e+08    750            4.6917564e-05
     10000   249825.35      3802.2343      13.023681      4.21875e+08    750            4.6917564e-05
     10100   243559.36      3861.0998      12.726792      4.21875e+08    750            4.6917564e-05
     10200   237385.79      3923.7474      12.43651       4.21875e+08    750            4.6917564e-05
     10300   231481.79      3986.0206      12.157889      4.21875e+08    750            4.6917564e-05
     10400   225669.87      4045.0054      11.881029      4.21875e+08    750            4.6917564e-05
     10500   220157.26      4097.9257      11.613382      4.21875e+08    750            4.6917564e-05
     10600   214819.58      4144.4399      11.349137      4.21875e+08    750            4.6917564e-05
     10700   209432.8       4184.0259      11.077886      4.21875e+08    750            4.6917564e-05
     10800   204400.61      4216.8409      10.817832      4.21875e+08    750            4.6917564e-05
     10900   199373.61      4241.9461      10.55274       4.21875e+08    750            4.6917564e-05
     11000   194685.07      4259.0122      10.297305      4.21875e+08    750            4.6917564e-05
     11100   189787.76      4268.4252      10.027252      4.21875e+08    750            4.6917564e-05
     11200   185178.34      4270.4556      9.7651014      4.21875e+08    750            4.6917564e-05
     11300   180691.98      4266.4667      9.5043873      4.21875e+08    750            4.6917564e-05
     11400   176242.57      4258.5069      9.2426625      4.21875e+08    750            4.6917564e-05
     11500   171934.36      4248.4464      8.9858771      4.21875e+08    750            4.6917564e-05
     11600   167801.13      4237.1813      8.7362119      4.21875e+08    750            4.6917564e-05
     11700   163809.97      4226.2994      8.4932404      4.21875e+08    750            4.6917564e-05
     11800   159887.22      4216.2092      8.253952       4.21875e+08    750            4.6917564e-05
     11900   156041.87      4208.1938      8.0196651      4.21875e+08    750            4.6917564e-05
     12000   152382.92      4203.0152      7.7958034      4.21875e+08    750            4.6917564e-05
     12100   148694.76      4201.4259      7.5732313      4.21875e+08    750            4.6917564e-05
     12200   145133.33      4204.2851      7.3595804      4.21875e+08    750            4.6917564e-05
     12300   141850.4       4212.081       7.1619063      4.21875e+08    750            4.6917564e-05
     12400   138552.74      4224.9374      6.9671248      4.21875e+08    750            4.6917564e-05
     12500   135169.55      4243.4655      6.7725138      4.21875e+08    750            4.6917564e-05
     12600   131880.04      4267.8028      6.5863223      4.21875e+08    750            4.6917564e-05
     12700   128752.59      4297.5785      6.4114056      4.21875e+08    750            4.6917564e-05
     12800   125763.65      4332.9248      6.2466489      4.21875e+08    750            4.6917564e-05
     12900   122698.35      4372.7728      6.0817988      4.21875e+08    750            4.6917564e-05
     13000   119808.11      4416.2565      5.9275372      4.21875e+08    750            4.6917564e-05
     13100   116907.32      4462.0526      5.774663       4.21875e+08    750            4.6917564e-05
     13200   114008.52      4509.135       5.623064       4.21875e+08    750            4.6917564e-05
     13300   111141.27      4555.5455      5.4727658      4.21875e+08    750            4.6917564e-05
     13400   108495.51      4600.5616      5.3317957      4.21875e+08    750            4.6917564e-05
     13500   105946.06      4642.4574      5.1934224      4.21875e+08    750            4.6917564e-05
     13600   103393.4       4680.6198      5.0527646      4.21875e+08    750            4.6917564e-05
     13700   100970.18      4713.9516      4.9150551      4.21875e+08    750            4.6917564e-05
     13800   98674.878      4742.5157      4.7801958      4.21875e+08    750            4.6917564e-05
     13900   96400.443      4766.6847      4.6436457      4.21875e+08    750            4.6917564e-05
     14000   94125.178      4787.3381      4.5050379      4.21875e+08    750            4.6917564e-05
     14100   91918.065      4803.9928      4.367145       4.21875e+08    750            4.6917564e-05
     14200   89666.55       4818.3493      4.2260999      4.21875e+08    750            4.6917564e-05
     14300   87548.512      4831.3559      4.0905029      4.21875e+08    750            4.6917564e-05
     14400   85439.874      4843.931       3.955431       4.21875e+08    750            4.6917564e-05
     14500   83603.726      4856.6609      3.8330696      4.21875e+08    750            4.6917564e-05
     14600   81657.033      4870.3576      3.7067773      4.21875e+08    750            4.6917564e-05
     14700   79749.545      4885.6392      3.5837724      4.21875e+08    750            4.6917564e-05
     14800   77896.469      4902.9925      3.4651166      4.21875e+08    750            4.6917564e-05
     14900   75974.455      4922.9434      3.3455789      4.21875e+08    750            4.6917564e-05
     15000   74305.473      4945.238       3.2395009      4.21875e+08    750            4.6917564e-05
     15100   72684.566      4970.0891      3.1376958      4.21875e+08    750            4.6917564e-05
     15200   70999.533      4997.2875      3.0350297      4.21875e+08    750            4.6917564e-05
     15300   69472.585      5026.9378      2.9415583      4.21875e+08    750            4.6917564e-05
     15400   67789.522      5058.5701      2.8429058      4.21875e+08    750            4.6917564e-05
     15500   66213.767      5092.0122      2.7507873      4.21875e+08    750            4.6917564e-05
     15600   64852.021      5126.8896      2.6697134      4.21875e+08    750            4.6917564e-05
     15700   63389.652      5162.7885      2.5853174      4.21875e+08    750            4.6917564e-05
     15800   61940.82       5199.3651      2.5024981      4.21875e+08    750            4.6917564e-05
     15900   60570.042      5236.4379      2.4239864      4.21875e+08    750            4.6917564e-05
     16000   59171.786      5273.6789      2.3448442      4.21875e+08    750            4.6917564e-05
     16100   57806.522      5311.0437      2.2678036      4.21875e+08    750            4.6917564e-05
     16200   56571.386      5348.5546      2.1971961      4.21875e+08    750            4.6917564e-05
     16300   55317.457      5385.8988      2.1261222      4.21875e+08    750            4.6917564e-05
     16400   54229.567      5422.9999      2.0628385      4.21875e+08    750            4.6917564e-05
     16500   53097.667      5459.945       1.9978542      4.21875e+08    750            4.6917564e-05
     16600   51904.776      5496.4398      1.9303148      4.21875e+08    750            4.6917564e-05
     16700   50738.652      5532.5071      1.8642289      4.21875e+08    750            4.6917564e-05
     16800   49627.615      5568.228       1.8008957      4.21875e+08    750            4.6917564e-05
     16900   48567.315      5603.5791      1.7401107      4.21875e+08    750            4.6917564e-05
     17000   47504.851      5638.512       1.6795092      4.21875e+08    750            4.6917564e-05
     17100   46481.649      5672.9944      1.6208989      4.21875e+08    750            4.6917564e-05
     17200   45548.043      5707.2972      1.5666744      4.21875e+08    750            4.6917564e-05
     17300   44602.245      5741.4343      1.5122333      4.21875e+08    750            4.6917564e-05
     17400   43639.544      5775.3006      1.4573619      4.21875e+08    750            4.6917564e-05
     17500   42714.285      5809.0458      1.4045512      4.21875e+08    750            4.6917564e-05
     17600   41833.108      5842.5897      1.354056       4.21875e+08    750            4.6917564e-05
     17700   40967.03       5875.9699      1.3045799      4.21875e+08    750            4.6917564e-05
     17800   40210.563      5909.1367      1.2603154      4.21875e+08    750            4.6917564e-05
     17900   39406.241      5941.9929      1.2141748      4.21875e+08    750            4.6917564e-05
     18000   38701.419      5974.7756      1.1728773      4.21875e+08    750            4.6917564e-05
     18100   37996.252      6007.4973      1.1319295      4.21875e+08    750            4.6917564e-05
     18200   37217.409      6040.1187      1.0880296      4.21875e+08    750            4.6917564e-05
     18300   36474.208      6072.6181      1.0460997      4.21875e+08    750            4.6917564e-05
     18400   35695.04       6104.928       1.0028756      4.21875e+08    750            4.6917564e-05
     18500   34956.623      6136.9295      0.96177838     4.21875e+08    750            4.6917564e-05
     18600   34319.221      6168.5823      0.92547043     4.21875e+08    750            4.6917564e-05
     18700   33666.582      6199.9483      0.8887364      4.21875e+08    750            4.6917564e-05
     18800   33002.187      6230.9817      0.85176254     4.21875e+08    750            4.6917564e-05
     18900   32448.909      6261.6785      0.82000334     4.21875e+08    750            4.6917564e-05
     19000   31817.73       6292.1979      0.78500498     4.21875e+08    750            4.6917564e-05
     19100   31186          6322.3752      0.75018301     4.21875e+08    750            4.6917564e-05
     19200   30635.525      6352.1379      0.71915492     4.21875e+08    750            4.6917564e-05
     19300   30120.932      6381.5523      0.68992779     4.21875e+08    750            4.6917564e-05
     19400   29622.437      6410.5831      0.66157897     4.21875e+08    750            4.6917564e-05
     19500   29039.588      6439.1901      0.62959004     4.21875e+08    750            4.6917564e-05
     19600   28501.775      6467.4408      0.59980041     4.21875e+08    750            4.6917564e-05
     19700   28024.089      6495.3378      0.57288792     4.21875e+08    750            4.6917564e-05
     19800   27520.851      6522.8235      0.54500444     4.21875e+08    750            4.6917564e-05
     19900   27105.99       6549.8554      0.52118285     4.21875e+08    750            4.6917564e-05
     20000   26735.904      6576.4556      0.49948009     4.21875e+08    750            4.6917564e-05
     20100   26293.839      6602.6963      0.47465999     4.21875e+08    750            4.6917564e-05
     20200   25847.715      6628.433       0.44975143     4.21875e+08    750            4.6917564e-05
     20300   25440.614      6653.7022      0.42670633     4.21875e+08    750            4.6917564e-05
     20400   25057.894      6678.6726      0.40490378     4.21875e+08    750            4.6917564e-05
     20500   24584.648      6703.1997      0.37917306     4.21875e+08    750            4.6917564e-05
     20600   24165.528      6727.3234      0.35600882     4.21875e+08    750            4.6917564e-05
     20700   23778.837      6751.009       0.33439794     4.21875e+08    750            4.6917564e-05
     20800   23450.626      6774.2221      0.31548599     4.21875e+08    750            4.6917564e-05
     20900   23111.078      6797.0493      0.29615235     4.21875e+08    750            4.6917564e-05
     21000   22786.053      6819.5057      0.27759574     4.21875e+08    750            4.6917564e-05
     21100   22495.743      6841.5633      0.2606763      4.21875e+08    750            4.6917564e-05
     21200   22207.396      6863.3291      0.24392851     4.21875e+08    750            4.6917564e-05
     21300   21931.143      6884.5795      0.22778417     4.21875e+08    750            4.6917564e-05
     21400   21571.471      6905.26        0.20794907     4.21875e+08    750            4.6917564e-05
     21500   21308.568      6925.4475      0.19253261     4.21875e+08    750            4.6917564e-05
     21600   21019.565      6945.2857      0.17602093     4.21875e+08    750            4.6917564e-05
     21700   20763.584      6964.6801      0.16106647     4.21875e+08    750            4.6917564e-05
     21800   20497.651      6983.7267      0.14577473     4.21875e+08    750            4.6917564e-05
     21900   20215.765      7002.3704      0.12986039     4.21875e+08    750            4.6917564e-05
     22000   19967.219      7020.7069      0.11554544     4.21875e+08    750            4.6917564e-05
     22100   19730.277      7038.6209      0.10180507     4.21875e+08    750            4.6917564e-05
     22200   19478.998      7056.1254      0.087493296    4.21875e+08    750            4.6917564e-05
     22300   19274.751      7073.1544      0.075324578    4.21875e+08    750            4.6917564e-05
     22400   19027.907      7089.7572      0.061289562    4.21875e+08    750            4.6917564e-05
     22500   18780.316      7105.9426      0.047318108    4.21875e+08    750            4.6917564e-05
     22600   18570.192      7121.7786      0.035107285    4.21875e+08    750            4.6917564e-05
     22700   18423.884      7137.3356      0.02582333     4.21875e+08    750            4.6917564e-05
     22800   18267.126      7152.4668      0.016139923    4.21875e+08    750            4.6917564e-05
     22900   18105.036      7167.272       0.0062963275   4.21875e+08    750            4.6917564e-05
     23000   17948.022      7181.7117     -0.003249225    4.21875e+08    750            4.6917564e-05
     23100   17783.901      7195.8005     -0.013068619    4.21875e+08    750            4.6917564e-05
     23200   17651.972      7209.4992     -0.021378325    4.21875e+08    750            4.6917564e-05
     23300   17503.326      7222.9126     -0.030367073    4.21875e+08    750            4.6917564e-05
     23400   17301.435      7235.997      -0.041681728    4.21875e+08    750            4.6917564e-05
     23500   17183.108      7248.7587     -0.049165979    4.21875e+08    750            4.6917564e-05
     23600   17029.776      7261.2715     -0.058166615    4.21875e+08    750            4.6917564e-05
     23700   16839.091      7273.4548     -0.06878226     4.21875e+08    750            4.6917564e-05
     23800   16661.161      7285.3358     -0.078762784    4.21875e+08    750            4.6917564e-05
     23900   16584.689      7296.9009     -0.084118491    4.21875e+08    750            4.6917564e-05
     24000   16483.003      7308.1668     -0.090564705    4.21875e+08    750            4.6917564e-05
     24100   16379.844      7319.0877     -0.097022361    4.21875e+08    750            4.6917564e-05
     24200   16263.618      7329.6717     -0.10402753     4.21875e+08    750            4.6917564e-05
     24300   16133.668      7339.8449     -0.11160196     4.21875e+08    750            4.6917564e-05
     24400   15954.299      7349.6165     -0.12134238     4.21875e+08    750            4.6917564e-05
     24500   15876.737      7359.1053     -0.12644568     4.21875e+08    750            4.6917564e-05
     24600   15787.514      7368.3554     -0.13202455     4.21875e+08    750            4.6917564e-05
     24700   15750.024      7377.2293     -0.13522131     4.21875e+08    750            4.6917564e-05
     24800   15689.638      7385.853      -0.1393935      4.21875e+08    750            4.6917564e-05
     24900   15548.175      7394.12       -0.14717382     4.21875e+08    750            4.6917564e-05
     25000   15405.939      7401.9895     -0.15495537     4.21875e+08    750            4.6917564e-05
     25100   15336.356      7409.5463     -0.15942997     4.21875e+08    750            4.6917564e-05
     25200   15245.122      7416.827      -0.16484166     4.21875e+08    750            4.6917564e-05
     25300   15174.634      7423.8628     -0.16927712     4.21875e+08    750            4.6917564e-05
     25400   15145.399      7430.6758     -0.17181856     4.21875e+08    750            4.6917564e-05
     25500   15060.919      7437.2566     -0.17681052     4.21875e+08    750            4.6917564e-05
     25600   14960.97       7443.518      -0.18244487     4.21875e+08    750            4.6917564e-05
     25700   14851          7449.4748     -0.18848212     4.21875e+08    750            4.6917564e-05
     25800   14769.927      7455.1408     -0.19318162     4.21875e+08    750            4.6917564e-05
     25900   14724.007      7460.5568     -0.19625852     4.21875e+08    750            4.6917564e-05
     26000   14659.49       7465.7626     -0.20013621     4.21875e+08    750            4.6917564e-05
     26100   14574.353      7470.6901     -0.20490508     4.21875e+08    750            4.6917564e-05
     26200   14529.66       7475.3619     -0.20783136     4.21875e+08    750            4.6917564e-05
     26300   14482.643      7479.7393     -0.2108129      4.21875e+08    750            4.6917564e-05
     26400   14446.89       7483.8423     -0.21323842     4.21875e+08    750            4.6917564e-05
     26500   14387.324      7487.6371     -0.21669388     4.21875e+08    750            4.6917564e-05
     26600   14372.905      7491.1371     -0.21811052     4.21875e+08    750            4.6917564e-05
     26700   14312.681      7494.358      -0.22155507     4.21875e+08    750            4.6917564e-05
     26800   14259.985      7497.3633     -0.22462511     4.21875e+08    750            4.6917564e-05
     26900   14218.643      7500.1222     -0.22716762     4.21875e+08    750            4.6917564e-05
     27000   14215.574      7502.5541     -0.22796763     4.21875e+08    750            4.6917564e-05
     27100   14169.97       7504.7053     -0.23065171     4.21875e+08    750            4.6917564e-05
     27200   14155.901      7506.6417     -0.23188172     4.21875e+08    750            4.6917564e-05
     27300   14163.768      7508.383      -0.23209057     4.21875e+08    750            4.6917564e-05
     27400   14116.389      7509.8853     -0.2347194      4.21875e+08    750            4.6917564e-05
     27500   14110.098      7511.1365     -0.23547638     4.21875e+08    750            4.6917564e-05
     27600   14060.609      7512.1286     -0.23817763     4.21875e+08    750            4.6917564e-05
     27700   14031.997      7513.0146     -0.23991114     4.21875e+08    750            4.6917564e-05
     27800   14030.788      7513.6048     -0.24039349     4.21875e+08    750            4.6917564e-05
     27900   13987.474      7513.9543     -0.24273411     4.21875e+08    750            4.6917564e-05
     28000   13962          7514.0275     -0.24423836     4.21875e+08    750            4.6917564e-05
     28100   13943.55       7513.8969     -0.24538991     4.21875e+08    750            4.6917564e-05
     28200   13932.208      7513.575      -0.2462014      4.21875e+08    750            4.6917564e-05
     28300   13887.001      7513.0707     -0.24849995     4.21875e+08    750            4.6917564e-05
     28400   13833.451      7512.4385     -0.25114566     4.21875e+08    750            4.6917564e-05
     28500   13828.512      7511.7058     -0.25158442     4.21875e+08    750            4.6917564e-05
     28600   13835.013      7510.8048     -0.25148759     4.21875e+08    750            4.6917564e-05
     28700   13772.738      7509.7045     -0.25444876     4.21875e+08    750            4.6917564e-05
     28800   13787.418      7508.4026     -0.25394018     4.21875e+08    750            4.6917564e-05
     28900   13836.969      7506.9036     -0.25182996     4.21875e+08    750            4.6917564e-05
     29000   13815.657      7505.2194     -0.25285928     4.21875e+08    750            4.6917564e-05
     29100   13833.02       7503.3028     -0.25213943     4.21875e+08    750            4.6917564e-05
     29200   13792.911      7501.2397     -0.25396557     4.21875e+08    750            4.6917564e-05
     29300   13776.791      7499.0154     -0.25469759     4.21875e+08    750            4.6917564e-05
     29400   13754.614      7496.5561     -0.25566468     4.21875e+08    750            4.6917564e-05
     29500   13724.133      7493.926      -0.2569883      4.21875e+08    750            4.6917564e-05
     29600   13719.362      7491.0741     -0.25713886     4.21875e+08    750            4.6917564e-05
     29700   13707.002      7488.0497     -0.25763614     4.21875e+08    750            4.6917564e-05
     29800   13732.002      7484.8579     -0.25644777     4.21875e+08    750            4.6917564e-05
     29900   13781.666      7481.4714     -0.25415237     4.21875e+08    750            4.6917564e-05
     30000   13775.086      7477.8233     -0.25436467     4.21875e+08    750            4.6917564e-05
     30100   13754.649      7473.9593     -0.25518242     4.21875e+08    750            4.6917564e-05
     30200   13759.378      7469.9291     -0.25484595     4.21875e+08    750            4.6917564e-05
     30300   13767.904      7465.7197     -0.25430495     4.21875e+08    750            4.6917564e-05
     30400   13805.346      7461.3099     -0.25244956     4.21875e+08    750            4.6917564e-05
     30500   13788.475      7456.7718     -0.25302362     4.21875e+08    750            4.6917564e-05
     30600   13792.993      7452.0588     -0.25260401     4.21875e+08    750            4.6917564e-05
     30700   13789.101      7447.1635     -0.25253232     4.21875e+08    750            4.6917564e-05
     30800   13759.819      7442.11       -0.25357704     4.21875e+08    750            4.6917564e-05
     30900   13736.045      7436.9366     -0.25437198     4.21875e+08    750            4.6917564e-05
     31000   13726.671      7431.6981     -0.25450803     4.21875e+08    750            4.6917564e-05
     31100   13741.534      7426.3754     -0.25353448     4.21875e+08    750            4.6917564e-05
     31200   13788.571      7420.8378     -0.25109653     4.21875e+08    750            4.6917564e-05
     31300   13817.944      7415.1025     -0.24944342     4.21875e+08    750            4.6917564e-05
     31400   13805.195      7409.2113     -0.24966036     4.21875e+08    750            4.6917564e-05
     31500   13842.569      7403.169      -0.24762206     4.21875e+08    750            4.6917564e-05
     31600   13849.707      7396.9419     -0.24692029     4.21875e+08    750            4.6917564e-05
     31700   13806.236      7390.5741     -0.24846753     4.21875e+08    750            4.6917564e-05
     31800   13782.616      7384.0243     -0.24910351     4.21875e+08    750            4.6917564e-05
     31900   13757.627      7377.2574     -0.24977356     4.21875e+08    750            4.6917564e-05
     32000   13748.559      7370.3343     -0.24970468     4.21875e+08    750            4.6917564e-05
     32100   13795.259      7363.2906     -0.24711408     4.21875e+08    750            4.6917564e-05
     32200   13839.025      7356.1231     -0.2446479      4.21875e+08    750            4.6917564e-05
     32300   13853.111      7348.8195     -0.24350895     4.21875e+08    750            4.6917564e-05
     32400   13877.118      7341.3804     -0.24192933     4.21875e+08    750            4.6917564e-05
     32500   13872.942      7333.8465     -0.24158817     4.21875e+08    750            4.6917564e-05
     32600   13849.398      7326.1644     -0.24209964     4.21875e+08    750            4.6917564e-05
     32700   13889.994      7318.3469     -0.2397412      4.21875e+08    750            4.6917564e-05
     32800   13885.812      7310.4228     -0.23939205     4.21875e+08    750            4.6917564e-05
     32900   13915.502      7302.3804     -0.23751211     4.21875e+08    750            4.6917564e-05
     33000   13914.506      7294.2861     -0.23701036     4.21875e+08    750            4.6917564e-05
     33100   13919.962      7286.1312     -0.23620616     4.21875e+08    750            4.6917564e-05
     33200   13951.595      7277.8774     -0.23421539     4.21875e+08    750            4.6917564e-05
     33300   13958.191      7269.5056     -0.2333442      4.21875e+08    750            4.6917564e-05
     33400   13971.734      7260.9683     -0.23214015     4.21875e+08    750            4.6917564e-05
     33500   13940.061      7252.3287     -0.23295205     4.21875e+08    750            4.6917564e-05
     33600   13997.024      7243.6182     -0.22977181     4.21875e+08    750            4.6917564e-05
     33700   14010.847      7234.818      -0.22852412     4.21875e+08    750            4.6917564e-05
     33800   14024.074      7225.9193     -0.2272889      4.21875e+08    750            4.6917564e-05
     33900   13994.618      7216.897      -0.22796105     4.21875e+08    750            4.6917564e-05
     34000   14027.797      7207.7807     -0.22579799     4.21875e+08    750            4.6917564e-05
     34100   14011.49       7198.5884     -0.22584016     4.21875e+08    750            4.6917564e-05
     34200   14036.436      7189.3938     -0.22403396     4.21875e+08    750            4.6917564e-05
     34300   13994.669      7180.1262     -0.22521309     4.21875e+08    750            4.6917564e-05
     34400   14010.145      7170.7444     -0.22382264     4.21875e+08    750            4.6917564e-05
     34500   13985.137      7161.245      -0.22423221     4.21875e+08    750            4.6917564e-05
     34600   13989.622      7151.6569     -0.22330686     4.21875e+08    750            4.6917564e-05
     34700   13998.549      7141.9601     -0.22216326     4.21875e+08    750            4.6917564e-05
     34800   14018.771      7132.2354     -0.22049637     4.21875e+08    750            4.6917564e-05
     34900   14007.159      7122.4615     -0.22023659     4.21875e+08    750            4.6917564e-05
     35000   14019.888      7112.5746     -0.21886604     4.21875e+08    750            4.6917564e-05
     35100   14067.804      7102.6285     -0.21590842     4.21875e+08    750            4.6917564e-05
     35200   14150.922      7092.6        -0.21136639     4.21875e+08    750            4.6917564e-05
     35300   14130.524      7082.5301     -0.21146668     4.21875e+08    750            4.6917564e-05
     35400   14085.899      7072.3675     -0.2126447      4.21875e+08    750            4.6917564e-05
     35500   14105.7        7062.1164     -0.21091683     4.21875e+08    750            4.6917564e-05
     35600   14059.934      7051.7852     -0.21211852     4.21875e+08    750            4.6917564e-05
     35700   14096.928      7041.3981     -0.20958947     4.21875e+08    750            4.6917564e-05
     35800   14139.343      7031.0048     -0.20681166     4.21875e+08    750            4.6917564e-05
     35900   14152.673      7020.5186     -0.20532752     4.21875e+08    750            4.6917564e-05
     36000   14186.365      7009.9672     -0.20292164     4.21875e+08    750            4.6917564e-05
     36100   14165.507      6999.3973     -0.20296771     4.21875e+08    750            4.6917564e-05
     36200   14163.491      6988.8215     -0.20216072     4.21875e+08    750            4.6917564e-05
     36300   14135.958      6978.2332     -0.20249318     4.21875e+08    750            4.6917564e-05
     36400   14127.644      6967.6403     -0.20195152     4.21875e+08    750            4.6917564e-05
     36500   14133.36       6956.9998     -0.20075919     4.21875e+08    750            4.6917564e-05
     36600   14147.387      6946.3144     -0.19916261     4.21875e+08    750            4.6917564e-05
     36700   14123.042      6935.5404     -0.19925624     4.21875e+08    750            4.6917564e-05
     36800   14086.605      6924.737      -0.19987488     4.21875e+08    750            4.6917564e-05
     36900   14084.971      6913.9016     -0.19892071     4.21875e+08    750            4.6917564e-05
     37000   14097.018      6903.0196     -0.19734048     4.21875e+08    750            4.6917564e-05
     37100   14021.239      6892.1294     -0.19968605     4.21875e+08    750            4.6917564e-05
     37200   14004.462      6881.1984     -0.19937132     4.21875e+08    750            4.6917564e-05
     37300   13993.163      6870.2037     -0.19879022     4.21875e+08    750            4.6917564e-05
     37400   13963.589      6859.1005     -0.19902256     4.21875e+08    750            4.6917564e-05
     37500   13998.805      6847.9567     -0.19631397     4.21875e+08    750            4.6917564e-05
     37600   13989.336      6836.6882     -0.1955882      4.21875e+08    750            4.6917564e-05
     37700   13951.635      6825.3539     -0.19611688     4.21875e+08    750            4.6917564e-05
     37800   13972.604      6814.0092     -0.19401215     4.21875e+08    750            4.6917564e-05
     37900   13918.666      6802.6475     -0.19526224     4.21875e+08    750            4.6917564e-05
     38000   13884.53       6791.2592     -0.19561134     4.21875e+08    750            4.6917564e-05
     38100   13866.326      6779.7761     -0.19521692     4.21875e+08    750            4.6917564e-05
     38200   13815.153      6768.2829     -0.19628716     4.21875e+08    750            4.6917564e-05
     38300   13809.82       6756.7944     -0.19527949     4.21875e+08    750            4.6917564e-05
     38400   13796.323      6745.2958     -0.19463012     4.21875e+08    750            4.6917564e-05
     38500   13795.901      6733.7445     -0.19337868     4.21875e+08    750            4.6917564e-05
     38600   13766.485      6722.1702     -0.19341634     4.21875e+08    750            4.6917564e-05
     38700   13767.841      6710.5273     -0.1920713      4.21875e+08    750            4.6917564e-05
     38800   13713.715      6698.8964     -0.19321065     4.21875e+08    750            4.6917564e-05
     38900   13711.104      6687.3219     -0.19202884     4.21875e+08    750            4.6917564e-05
     39000   13761.269      6675.8171     -0.18845695     4.21875e+08    750            4.6917564e-05
     39100   13718.38       6664.1875     -0.18905272     4.21875e+08    750            4.6917564e-05
     39200   13704.197      6652.4877     -0.18836051     4.21875e+08    750            4.6917564e-05
     39300   13717.035      6640.8248     -0.18642911     4.21875e+08    750            4.6917564e-05
     39400   13727.174      6629.1821     -0.18458988     4.21875e+08    750            4.6917564e-05
     39500   13682.92       6617.5655     -0.18517155     4.21875e+08    750            4.6917564e-05
     39600   13625.074      6605.864      -0.18634044     4.21875e+08    750            4.6917564e-05
     39700   13621.243      6594.1746     -0.18506547     4.21875e+08    750            4.6917564e-05
     39800   13601.286      6582.5075     -0.18451852     4.21875e+08    750            4.6917564e-05
     39900   13553.876      6570.8706     -0.18521332     4.21875e+08    750            4.6917564e-05
     40000   13485.104      6559.2273     -0.1868827      4.21875e+08    750            4.6917564e-05
     40100   13517.393      6547.6107     -0.18402713     4.21875e+08    750            4.6917564e-05
     40200   13475.852      6535.9086     -0.18447853     4.21875e+08    750            4.6917564e-05
     40300   13471.189      6524.2581     -0.18327447     4.21875e+08    750            4.6917564e-05
     40400   13450.75       6512.5901     -0.18277967     4.21875e+08    750            4.6917564e-05
     40500   13484.468      6500.8856     -0.17983983     4.21875e+08    750            4.6917564e-05
     40600   13428.958      6489.1619     -0.18089957     4.21875e+08    750            4.6917564e-05
     40700   13388.328      6477.4247     -0.18128911     4.21875e+08    750            4.6917564e-05
     40800   13360.508      6465.6619     -0.1810921      4.21875e+08    750            4.6917564e-05
     40900   13326.531      6453.8666     -0.1811589      4.21875e+08    750            4.6917564e-05
     41000   13338.62       6442.0336     -0.1791431      4.21875e+08    750            4.6917564e-05
     41100   13346.544      6430.2234     -0.17731215     4.21875e+08    750            4.6917564e-05
     41200   13333.753      6418.3776     -0.17642327     4.21875e+08    750            4.6917564e-05
     41300   13385.936      6406.5311     -0.17263569     4.21875e+08    750            4.6917564e-05
     41400   13355.152      6394.674      -0.1725939      4.21875e+08    750            4.6917564e-05
     41500   13300.328      6382.8101     -0.17364663     4.21875e+08    750            4.6917564e-05
     41600   13272.876      6370.8337     -0.17346577     4.21875e+08    750            4.6917564e-05
     41700   13233.381      6358.8293     -0.17382039     4.21875e+08    750            4.6917564e-05
     41800   13237.404      6346.8498     -0.17222139     4.21875e+08    750            4.6917564e-05
     41900   13278.977      6334.898      -0.16894074     4.21875e+08    750            4.6917564e-05
     42000   13291.807      6322.9515     -0.1669276      4.21875e+08    750            4.6917564e-05
     42100   13263.353      6310.9928     -0.16676654     4.21875e+08    750            4.6917564e-05
     42200   13251.782      6299.0492     -0.1658563      4.21875e+08    750            4.6917564e-05
     42300   13271.825      6287.1093     -0.16352833     4.21875e+08    750            4.6917564e-05
     42400   13312.524      6275.1194     -0.16028222     4.21875e+08    750            4.6917564e-05
     42500   13322.171      6263.0356     -0.15842791     4.21875e+08    750            4.6917564e-05
     42600   13320.781      6250.945      -0.15708944     4.21875e+08    750            4.6917564e-05
     42700   13289.877      6238.8069     -0.1570745      4.21875e+08    750            4.6917564e-05
     42800   13284.398      6226.6607     -0.15591422     4.21875e+08    750            4.6917564e-05
     42900   13279.752      6214.5518     -0.15471019     4.21875e+08    750            4.6917564e-05
     43000   13264.328      6202.4672     -0.15397234     4.21875e+08    750            4.6917564e-05
     43100   13230.692      6190.378      -0.15402823     4.21875e+08    750            4.6917564e-05
     43200   13204.75       6178.2976     -0.15374251     4.21875e+08    750            4.6917564e-05
     43300   13211.735      6166.2309     -0.15195028     4.21875e+08    750            4.6917564e-05
     43400   13154.408      6154.1793     -0.15304188     4.21875e+08    750            4.6917564e-05
     43500   13178.668      6142.059      -0.15049393     4.21875e+08    750            4.6917564e-05
     43600   13215.007      6129.9874     -0.1474026      4.21875e+08    750            4.6917564e-05
     43700   13216.733      6117.9149     -0.14587271     4.21875e+08    750            4.6917564e-05
     43800   13155.995      6105.7425     -0.14715151     4.21875e+08    750            4.6917564e-05
     43900   13235.946      6093.4893     -0.14211445     4.21875e+08    750            4.6917564e-05
     44000   13234.682      6081.192      -0.14073669     4.21875e+08    750            4.6917564e-05
     44100   13237.776      6068.8464     -0.13916503     4.21875e+08    750            4.6917564e-05
     44200   13241.579      6056.4612     -0.13757329     4.21875e+08    750            4.6917564e-05
     44300   13263.118      6043.9648     -0.13519315     4.21875e+08    750            4.6917564e-05
     44400   13253.035      6031.4044     -0.13425382     4.21875e+08    750            4.6917564e-05
     44500   13265.455      6018.896      -0.13231043     4.21875e+08    750            4.6917564e-05
     44600   13287.776      6006.3768     -0.12994887     4.21875e+08    750            4.6917564e-05
     44700   13280.519      5993.7573     -0.12894748     4.21875e+08    750            4.6917564e-05
     44800   13270.523      5981.1639     -0.12805388     4.21875e+08    750            4.6917564e-05
     44900   13240.466      5968.5116     -0.12806506     4.21875e+08    750            4.6917564e-05
     45000   13190.674      5955.8389     -0.12897896     4.21875e+08    750            4.6917564e-05
     45100   13170.879      5943.158      -0.12856492     4.21875e+08    750            4.6917564e-05
     45200   13176.587      5930.5275     -0.1270376      4.21875e+08    750            4.6917564e-05
     45300   13133.423      5917.9267     -0.12770723     4.21875e+08    750            4.6917564e-05
     45400   13193.119      5905.3223     -0.12375734     4.21875e+08    750            4.6917564e-05
     45500   13201.796      5892.6832     -0.12211585     4.21875e+08    750            4.6917564e-05
     45600   13203.586      5880.072      -0.12080981     4.21875e+08    750            4.6917564e-05
     45700   13147.828      5867.474      -0.12211935     4.21875e+08    750            4.6917564e-05
     45800   13117.068      5854.9838     -0.12228925     4.21875e+08    750            4.6917564e-05
     45900   13050.865      5842.5304     -0.12404466     4.21875e+08    750            4.6917564e-05
     46000   13022.186      5830.0907     -0.12412359     4.21875e+08    750            4.6917564e-05
     46100   13016.202      5817.6467     -0.12321524     4.21875e+08    750            4.6917564e-05
     46200   13006.693      5805.1689     -0.12245841     4.21875e+08    750            4.6917564e-05
     46300   12995.77       5792.6482     -0.12178503     4.21875e+08    750            4.6917564e-05
     46400   12986.176      5780.1006     -0.1210583      4.21875e+08    750            4.6917564e-05
     46500   12939.12       5767.544      -0.12202973     4.21875e+08    750            4.6917564e-05
     46600   12918.821      5754.9339     -0.12180931     4.21875e+08    750            4.6917564e-05
     46700   12899.827      5742.3647     -0.12154345     4.21875e+08    750            4.6917564e-05
     46800   12858.278      5729.8582     -0.12227377     4.21875e+08    750            4.6917564e-05
     46900   12870.783      5717.3446     -0.1205488      4.21875e+08    750            4.6917564e-05
     47000   12828.118      5704.8374     -0.12131109     4.21875e+08    750            4.6917564e-05
     47100   12758.562      5692.367      -0.1233046      4.21875e+08    750            4.6917564e-05
     47200   12727.596      5679.953      -0.12359864     4.21875e+08    750            4.6917564e-05
     47300   12735.556      5667.5274     -0.12214433     4.21875e+08    750            4.6917564e-05
     47400   12691.511      5655.1194     -0.12303547     4.21875e+08    750            4.6917564e-05
     47500   12675.854      5642.8105     -0.12265843     4.21875e+08    750            4.6917564e-05
     47600   12626.152      5630.4868     -0.12383518     4.21875e+08    750            4.6917564e-05
     47700   12624.73       5618.1002     -0.12285087     4.21875e+08    750            4.6917564e-05
     47800   12560.246      5605.6988     -0.12470298     4.21875e+08    750            4.6917564e-05
     47900   12575.012      5593.3259     -0.12301318     4.21875e+08    750            4.6917564e-05
     48000   12556.344      5580.9918     -0.12282674     4.21875e+08    750            4.6917564e-05
     48100   12542.554      5568.6937     -0.12243015     4.21875e+08    750            4.6917564e-05
     48200   12519.31       5556.3525     -0.12245175     4.21875e+08    750            4.6917564e-05
     48300   12491.867      5544.0088     -0.12266225     4.21875e+08    750            4.6917564e-05
     48400   12478.528      5531.6845     -0.12224694     4.21875e+08    750            4.6917564e-05
     48500   12508.853      5519.3541     -0.11984642     4.21875e+08    750            4.6917564e-05
     48600   12506.667      5506.9549     -0.11889364     4.21875e+08    750            4.6917564e-05
     48700   12440.37       5494.5496     -0.12081794     4.21875e+08    750            4.6917564e-05
     48800   12410.071      5482.1876     -0.121107       4.21875e+08    750            4.6917564e-05
     48900   12363.938      5469.8588     -0.12208833     4.21875e+08    750            4.6917564e-05
     49000   12351.598      5457.5872     -0.12156001     4.21875e+08    750            4.6917564e-05
     49100   12363.105      5445.3754     -0.11995359     4.21875e+08    750            4.6917564e-05
     49200   12278.201      5433.2367     -0.12267999     4.21875e+08    750            4.6917564e-05
     49300   12196.181      5421.145      -0.12527034     4.21875e+08    750            4.6917564e-05
     49400   12162.41       5409.0492     -0.12571961     4.21875e+08    750            4.6917564e-05
     49500   12159.236      5396.9637     -0.12480619     4.21875e+08    750            4.6917564e-05
     49600   12184.522      5384.9207     -0.12260499     4.21875e+08    750            4.6917564e-05
     49700   12155.012      5372.8755     -0.12284893     4.21875e+08    750            4.6917564e-05
     49800   12157.655      5360.8264     -0.12163805     4.21875e+08    750            4.6917564e-05
     49900   12114.175      5348.7876     -0.12248742     4.21875e+08    750            4.6917564e-05
     50000   12054.324      5336.7908     -0.12407443     4.21875e+08    750            4.6917564e-05
     50100   12081.708      5324.791      -0.12176028     4.21875e+08    750            4.6917564e-05
     50200   12081.622      5312.7598     -0.12065583     4.21875e+08    750            4.6917564e-05
     50300   12045.677      5300.7409     -0.12118815     4.21875e+08    750            4.6917564e-05
     50400   12041.857      5288.7318     -0.1202785      4.21875e+08    750            4.6917564e-05
     50500   12088.691      5276.7593     -0.11708667     4.21875e+08    750            4.6917564e-05
     50600   12088.052      5264.7667     -0.11603095     4.21875e+08    750            4.6917564e-05
     50700   12082.75       5252.808      -0.11520095     4.21875e+08    750            4.6917564e-05
     50800   12064.6        5240.8241     -0.11496495     4.21875e+08    750            4.6917564e-05
     50900   12060.526      5228.8918     -0.1140996      4.21875e+08    750            4.6917564e-05
     51000   12079.481      5216.9371     -0.11220001     4.21875e+08    750            4.6917564e-05
     51100   12062.122      5204.9398     -0.11192223     4.21875e+08    750            4.6917564e-05
     51200   11973.885      5192.9446     -0.11482068     4.21875e+08    750            4.6917564e-05
     51300   11953.917      5181.0438     -0.11466575     4.21875e+08    750            4.6917564e-05
     51400   11943.617      5169.1274     -0.11409407     4.21875e+08    750            4.6917564e-05
     51500   11887.14       5157.2277     -0.11561526     4.21875e+08    750            4.6917564e-05
     51600   11865.791      5145.3605     -0.11556982     4.21875e+08    750            4.6917564e-05
     51700   11880.211      5133.5024     -0.11392869     4.21875e+08    750            4.6917564e-05
     51800   11915.037      5121.5812     -0.11136494     4.21875e+08    750            4.6917564e-05
     51900   11905.147      5109.6416     -0.11079665     4.21875e+08    750            4.6917564e-05
     52000   11864.65       5097.7227     -0.11160091     4.21875e+08    750            4.6917564e-05
     52100   11848.641      5085.8716     -0.11129599     4.21875e+08    750            4.6917564e-05
     52200   11782.752      5073.97       -0.11323484     4.21875e+08    750            4.6917564e-05
     52300   11740.692      5062.0787     -0.11410425     4.21875e+08    750            4.6917564e-05
     52400   11726.083      5050.1863     -0.11373228     4.21875e+08    750            4.6917564e-05
     52500   11692.075      5038.2888     -0.11421799     4.21875e+08    750            4.6917564e-05
     52600   11652.336      5026.4059     -0.11494695     4.21875e+08    750            4.6917564e-05
     52700   11657.058      5014.4965     -0.11366719     4.21875e+08    750            4.6917564e-05
     52800   11608.223      5002.5643     -0.11480201     4.21875e+08    750            4.6917564e-05
     52900   11611.963      4990.7435     -0.1135725      4.21875e+08    750            4.6917564e-05
     53000   11582.494      4978.9134     -0.11384515     4.21875e+08    750            4.6917564e-05
     53100   11549.049      4967.1041     -0.11429132     4.21875e+08    750            4.6917564e-05
     53200   11543.565      4955.3008     -0.11348304     4.21875e+08    750            4.6917564e-05
     53300   11493.041      4943.4842     -0.1146983      4.21875e+08    750            4.6917564e-05
     53400   11430.777      4931.6845     -0.11644181     4.21875e+08    750            4.6917564e-05
     53500   11445.58       4919.8917     -0.1147254      4.21875e+08    750            4.6917564e-05
     53600   11430.973      4908.1171     -0.11431788     4.21875e+08    750            4.6917564e-05
     53700   11470.155      4896.3459     -0.11150309     4.21875e+08    750            4.6917564e-05
     53800   11452.358      4884.5748     -0.11125728     4.21875e+08    750            4.6917564e-05
     53900   11423.087      4872.8046     -0.11154887     4.21875e+08    750            4.6917564e-05
     54000   11423.814      4861.042      -0.11047258     4.21875e+08    750            4.6917564e-05
     54100   11403.447      4849.2692     -0.11034599     4.21875e+08    750            4.6917564e-05
     54200   11391.826      4837.5154     -0.10981454     4.21875e+08    750            4.6917564e-05
     54300   11342.127      4825.8433     -0.11098408     4.21875e+08    750            4.6917564e-05
     54400   11339.994      4814.2063     -0.11001845     4.21875e+08    750            4.6917564e-05
     54500   11234.262      4802.585      -0.11371084     4.21875e+08    750            4.6917564e-05
     54600   11176.643      4791.0065     -0.11526129     4.21875e+08    750            4.6917564e-05
     54700   11206.886      4779.483      -0.11286646     4.21875e+08    750            4.6917564e-05
     54800   11229.871      4767.947      -0.11080535     4.21875e+08    750            4.6917564e-05
     54900   11213.916      4756.3942     -0.11050221     4.21875e+08    750            4.6917564e-05
     55000   11213.291      4744.9273     -0.10950736     4.21875e+08    750            4.6917564e-05
     55100   11188.122      4733.4228     -0.10960878     4.21875e+08    750            4.6917564e-05
     55200   11190.783      4721.9712     -0.10846995     4.21875e+08    750            4.6917564e-05
     55300   11150.122      4710.539      -0.10928502     4.21875e+08    750            4.6917564e-05
     55400   11161.253      4699.1686     -0.10777242     4.21875e+08    750            4.6917564e-05
     55500   11094.646      4687.8918     -0.10975929     4.21875e+08    750            4.6917564e-05
     55600   11039.38       4676.6715     -0.11125089     4.21875e+08    750            4.6917564e-05
     55700   11010.065      4665.5029     -0.11156971     4.21875e+08    750            4.6917564e-05
     55800   11030.348      4654.3286     -0.1096451      4.21875e+08    750            4.6917564e-05
     55900   11000.979      4643.1566     -0.10995904     4.21875e+08    750            4.6917564e-05
     56000   10951.978      4632.108      -0.11114309     4.21875e+08    750            4.6917564e-05
     56100   10956.976      4621.014      -0.10991858     4.21875e+08    750            4.6917564e-05
     56200   10899.24       4609.9508     -0.11150404     4.21875e+08    750            4.6917564e-05
     56300   10883.434      4598.9588     -0.11119048     4.21875e+08    750            4.6917564e-05
     56400   10873.344      4587.9964     -0.11061872     4.21875e+08    750            4.6917564e-05
     56500   10851.353      4577.0525     -0.11057416     4.21875e+08    750            4.6917564e-05
     56600   10826.789      4566.1298     -0.11062653     4.21875e+08    750            4.6917564e-05
     56700   10840.526      4555.1564     -0.10894249     4.21875e+08    750            4.6917564e-05
     56800   10820.829      4544.1767     -0.10875674     4.21875e+08    750            4.6917564e-05
     56900   10863.202      4533.2234     -0.10577819     4.21875e+08    750            4.6917564e-05
     57000   10859.92       4522.2712     -0.10484001     4.21875e+08    750            4.6917564e-05
     57100   10802.369      4511.3573     -0.10633087     4.21875e+08    750            4.6917564e-05
     57200   10805.129      4500.4751     -0.10511333     4.21875e+08    750            4.6917564e-05
     57300   10827.433      4489.6116     -0.10301943     4.21875e+08    750            4.6917564e-05
     57400   10838.143      4478.8352     -0.10143084     4.21875e+08    750            4.6917564e-05
     57500   10774.893      4468.0409     -0.10316391     4.21875e+08    750            4.6917564e-05
     57600   10803.427      4457.3667     -0.10075227     4.21875e+08    750            4.6917564e-05
     57700   10796.856      4446.6481     -0.099930844    4.21875e+08    750            4.6917564e-05
     57800   10772.99       4435.9446     -0.099884117    4.21875e+08    750            4.6917564e-05
     57900   10747.661      4425.2691     -0.099907047    4.21875e+08    750            4.6917564e-05
     58000   10720.616      4414.6433     -0.10000535     4.21875e+08    750            4.6917564e-05
     58100   10711.399      4404.0252     -0.099298288    4.21875e+08    750            4.6917564e-05
     58200   10684.947      4393.4201     -0.099375457    4.21875e+08    750            4.6917564e-05
     58300   10658.295      4382.8411     -0.099456203    4.21875e+08    750            4.6917564e-05
     58400   10571.637      4372.3383     -0.10223455     4.21875e+08    750            4.6917564e-05
     58500   10541.441      4361.9141     -0.10249085     4.21875e+08    750            4.6917564e-05
     58600   10542.563      4351.5386     -0.10133148     4.21875e+08    750            4.6917564e-05
     58700   10495.17       4341.1914     -0.10235923     4.21875e+08    750            4.6917564e-05
     58800   10488.348      4330.8176     -0.10158413     4.21875e+08    750            4.6917564e-05
     58900   10491.056      4320.5256     -0.10038287     4.21875e+08    750            4.6917564e-05
     59000   10471.637      4310.2577     -0.10017497     4.21875e+08    750            4.6917564e-05
     59100   10472.165      4300.049      -0.099067565    4.21875e+08    750            4.6917564e-05
     59200   10510.523      4289.8398     -0.096272945    4.21875e+08    750            4.6917564e-05
     59300   10495.48       4279.691      -0.095878251    4.21875e+08    750            4.6917564e-05
     59400   10472.085      4269.5864     -0.095849927    4.21875e+08    750            4.6917564e-05
     59500   10468.15       4259.5264     -0.094950309    4.21875e+08    750            4.6917564e-05
     59600   10451.286      4249.374      -0.094628637    4.21875e+08    750            4.6917564e-05
     59700   10430.533      4239.2805     -0.094465344    4.21875e+08    750            4.6917564e-05
     59800   10374.768      4229.1777     -0.095874253    4.21875e+08    750            4.6917564e-05
     59900   10356.052      4219.1164     -0.095633748    4.21875e+08    750            4.6917564e-05
     60000   10323.413      4209.0802     -0.096019905    4.21875e+08    750            4.6917564e-05
     60100   10336.026      4199.0606     -0.094364616    4.21875e+08    750            4.6917564e-05
     60200   10359.512      4189.0719     -0.092205697    4.21875e+08    750            4.6917564e-05
     60300   10315.297      4179.107      -0.093080164    4.21875e+08    750            4.6917564e-05
     60400   10352.768      4169.2361     -0.090266599    4.21875e+08    750            4.6917564e-05
     60500   10329.603      4159.339      -0.090166408    4.21875e+08    750            4.6917564e-05
     60600   10332.13       4149.4969     -0.088918616    4.21875e+08    750            4.6917564e-05
     60700   10268.736      4139.656      -0.090615136    4.21875e+08    750            4.6917564e-05
     60800   10236.565      4129.8411     -0.090920656    4.21875e+08    750            4.6917564e-05
     60900   10229.01       4119.9805     -0.090132895    4.21875e+08    750            4.6917564e-05
     61000   10213.852      4110.109      -0.089690112    4.21875e+08    750            4.6917564e-05
     61100   10178.414      4100.263      -0.090156044    4.21875e+08    750            4.6917564e-05
     61200   10222.768      4090.4146     -0.087037759    4.21875e+08    750            4.6917564e-05
     61300   10249.484      4080.5863     -0.084709537    4.21875e+08    750            4.6917564e-05
     61400   10256.226      4070.7865     -0.083282106    4.21875e+08    750            4.6917564e-05
     61500   10231.418      4061.021      -0.083267033    4.21875e+08    750            4.6917564e-05
     61600   10234.663      4051.2575     -0.081992321    4.21875e+08    750            4.6917564e-05
     61700   10190.328      4041.5305     -0.0828712      4.21875e+08    750            4.6917564e-05
     61800   10156.218      4031.8614     -0.08330524     4.21875e+08    750            4.6917564e-05
     61900   10105.863      4022.1911     -0.084466845    4.21875e+08    750            4.6917564e-05
     62000   10076.871      4012.5183     -0.084650698    4.21875e+08    750            4.6917564e-05
     62100   10050.507      4002.8395     -0.084720264    4.21875e+08    750            4.6917564e-05
     62200   10008.517      3993.2079     -0.085504986    4.21875e+08    750            4.6917564e-05
     62300   9996.2986      3983.5864     -0.084961474    4.21875e+08    750            4.6917564e-05
     62400   9993.1708      3973.9516     -0.084007385    4.21875e+08    750            4.6917564e-05
     62500   9953.3411      3964.3442     -0.084704689    4.21875e+08    750            4.6917564e-05
     62600   9925.79        3954.8088     -0.084844318    4.21875e+08    750            4.6917564e-05
     62700   9883.0153      3945.2751     -0.085657884    4.21875e+08    750            4.6917564e-05
     62800   9875.0073      3935.7091     -0.084926546    4.21875e+08    750            4.6917564e-05
     62900   9880.9315      3926.1355     -0.083584099    4.21875e+08    750            4.6917564e-05
     63000   9833.1408      3916.6051     -0.084670317    4.21875e+08    750            4.6917564e-05
     63100   9831.4177      3907.1204     -0.083695506    4.21875e+08    750            4.6917564e-05
     63200   9831.5849      3897.6273     -0.082646506    4.21875e+08    750            4.6917564e-05
     63300   9794.2218      3888.1539     -0.083290119    4.21875e+08    750            4.6917564e-05
     63400   9772.3991      3878.7514     -0.083229496    4.21875e+08    750            4.6917564e-05
     63500   9737.3289      3869.3719     -0.083749264    4.21875e+08    750            4.6917564e-05
     63600   9730.7535      3859.984      -0.082990606    4.21875e+08    750            4.6917564e-05
     63700   9690.9782      3850.6222     -0.083730142    4.21875e+08    750            4.6917564e-05
     63800   9654.8384      3841.3684     -0.084310255    4.21875e+08    750            4.6917564e-05
     63900   9603.0947      3832.1071     -0.085594876    4.21875e+08    750            4.6917564e-05
     64000   9544.5071      3822.9119     -0.087214491    4.21875e+08    750            4.6917564e-05
     64100   9533.8692      3813.7312     -0.086698555    4.21875e+08    750            4.6917564e-05
     64200   9505.9445      3804.6254     -0.086958962    4.21875e+08    750            4.6917564e-05
     64300   9503.2237      3795.5829     -0.086092074    4.21875e+08    750            4.6917564e-05
     64400   9530.6497      3786.5743     -0.08387888     4.21875e+08    750            4.6917564e-05
     64500   9508.6701      3777.5826     -0.083891655    4.21875e+08    750            4.6917564e-05
     64600   9466.3543      3768.6221     -0.08481645     4.21875e+08    750            4.6917564e-05
     64700   9430.0965      3759.6996     -0.085480142    4.21875e+08    750            4.6917564e-05
     64800   9402.0804      3750.8085     -0.085787535    4.21875e+08    750            4.6917564e-05
     64900   9428.6458      3741.9428     -0.083647146    4.21875e+08    750            4.6917564e-05
     65000   9442.7648      3733.0461     -0.08205546     4.21875e+08    750            4.6917564e-05
     65100   9419.067       3724.1554     -0.082140742    4.21875e+08    750            4.6917564e-05
     65200   9414.7409      3715.2679     -0.081350794    4.21875e+08    750            4.6917564e-05
     65300   9421.087       3706.382      -0.080066453    4.21875e+08    750            4.6917564e-05
     65400   9431.6184      3697.5299     -0.07858855     4.21875e+08    750            4.6917564e-05
     65500   9421.3826      3688.7107     -0.078041758    4.21875e+08    750            4.6917564e-05
     65600   9432.9918      3679.8863     -0.07652096     4.21875e+08    750            4.6917564e-05
     65700   9386.2118      3671.1078     -0.077630206    4.21875e+08    750            4.6917564e-05
     65800   9362.9506      3662.4022     -0.077680671    4.21875e+08    750            4.6917564e-05
     65900   9291.5089      3653.7353     -0.079890546    4.21875e+08    750            4.6917564e-05
     66000   9246.0423      3645.0908     -0.080924441    4.21875e+08    750            4.6917564e-05
     66100   9279.5257      3636.4636     -0.078405141    4.21875e+08    750            4.6917564e-05
     66200   9233.0769      3627.8482     -0.079461662    4.21875e+08    750            4.6917564e-05
     66300   9254.3875      3619.2576     -0.077484812    4.21875e+08    750            4.6917564e-05
     66400   9267.1394      3610.6764     -0.075881389    4.21875e+08    750            4.6917564e-05
     66500   9256.4575      3602.1009     -0.075327822    4.21875e+08    750            4.6917564e-05
     66600   9251.5626      3593.5167     -0.074508334    4.21875e+08    750            4.6917564e-05
     66700   9221.9474      3584.928      -0.074794399    4.21875e+08    750            4.6917564e-05
     66800   9223.2069      3576.3649     -0.073699392    4.21875e+08    750            4.6917564e-05
     66900   9252.8596      3567.8431     -0.071342758    4.21875e+08    750            4.6917564e-05
     67000   9229.6583      3559.3087     -0.071368476    4.21875e+08    750            4.6917564e-05
     67100   9175.7672      3550.8436     -0.07276853     4.21875e+08    750            4.6917564e-05
     67200   9159.7711      3542.4136     -0.072463301    4.21875e+08    750            4.6917564e-05
     67300   9133.1034      3533.9964     -0.072644433    4.21875e+08    750            4.6917564e-05
     67400   9098.3339      3525.6038     -0.073195737    4.21875e+08    750            4.6917564e-05
     67500   9078.0187      3517.2333     -0.073094832    4.21875e+08    750            4.6917564e-05
     67600   9070.8178      3508.901      -0.072391339    4.21875e+08    750            4.6917564e-05
     67700   8999.3682      3500.5976     -0.074580023    4.21875e+08    750            4.6917564e-05
     67800   9005.1831      3492.3272     -0.073304562    4.21875e+08    750            4.6917564e-05
     67900   8973.3554      3484.0702     -0.073717228    4.21875e+08    750            4.6917564e-05
     68000   8930.0405      3475.9035     -0.074638565    4.21875e+08    750            4.6917564e-05
     68100   8864.0314      3467.6872     -0.076582272    4.21875e+08    750            4.6917564e-05
     68200   8818.7075      3459.494      -0.077611791    4.21875e+08    750            4.6917564e-05
     68300   8794.6797      3451.3317     -0.077686133    4.21875e+08    750            4.6917564e-05
     68400   8796.3974      3443.1757     -0.076599338    4.21875e+08    750            4.6917564e-05
     68500   8739.2175      3435.044      -0.078147643    4.21875e+08    750            4.6917564e-05
     68600   8719.3949      3426.9108     -0.07800183     4.21875e+08    750            4.6917564e-05
     68700   8692.9415      3418.8356     -0.078133291    4.21875e+08    750            4.6917564e-05
     68800   8643.3447      3410.7794     -0.079294527    4.21875e+08    750            4.6917564e-05
     68900   8607.0234      3402.7554     -0.079869408    4.21875e+08    750            4.6917564e-05
     69000   8588.3284      3394.7914     -0.079660546    4.21875e+08    750            4.6917564e-05
     69100   8586.2728      3386.8423     -0.078729224    4.21875e+08    750            4.6917564e-05
     69200   8571.7543      3378.92       -0.078384341    4.21875e+08    750            4.6917564e-05
     69300   8587.2588      3371.0324     -0.076687861    4.21875e+08    750            4.6917564e-05
     69400   8572.8348      3363.1434     -0.076306909    4.21875e+08    750            4.6917564e-05
     69500   8567.408       3355.2577     -0.075502888    4.21875e+08    750            4.6917564e-05
     69600   8544.4083      3347.3805     -0.075510173    4.21875e+08    750            4.6917564e-05
     69700   8564.487       3339.5031     -0.073601943    4.21875e+08    750            4.6917564e-05
     69800   8506.0341      3331.6217     -0.075221491    4.21875e+08    750            4.6917564e-05
     69900   8478.7583      3323.76       -0.075433073    4.21875e+08    750            4.6917564e-05
     70000   8471.9315      3315.9437     -0.074720531    4.21875e+08    750            4.6917564e-05
     70100   8481.3014      3308.1733     -0.073289831    4.21875e+08    750            4.6917564e-05
     70200   8436.3784      3300.395      -0.074298516    4.21875e+08    750            4.6917564e-05
     70300   8386.5103      3292.6598     -0.075535645    4.21875e+08    750            4.6917564e-05
     70400   8417.1059      3284.9764     -0.073161974    4.21875e+08    750            4.6917564e-05
     70500   8433.8899      3277.3276     -0.071399511    4.21875e+08    750            4.6917564e-05
     70600   8408.7084      3269.7271     -0.07150207     4.21875e+08    750            4.6917564e-05
     70700   8388.3392      3262.1782     -0.071400588    4.21875e+08    750            4.6917564e-05
     70800   8384.5837      3254.6632     -0.070571825    4.21875e+08    750            4.6917564e-05
     70900   8352.9958      3247.1925     -0.070984238    4.21875e+08    750            4.6917564e-05
     71000   8327.7782      3239.7418     -0.071100569    4.21875e+08    750            4.6917564e-05
     71100   8314.3517      3232.272      -0.070684219    4.21875e+08    750            4.6917564e-05
     71200   8312.1129      3224.7955     -0.06975956     4.21875e+08    750            4.6917564e-05
     71300   8286.4859      3217.3415     -0.069898428    4.21875e+08    750            4.6917564e-05
     71400   8260.3313      3209.9233     -0.070070421    4.21875e+08    750            4.6917564e-05
     71500   8266.4045      3202.5418     -0.068782393    4.21875e+08    750            4.6917564e-05
     71600   8245.6327      3195.1979     -0.068686903    4.21875e+08    750            4.6917564e-05
     71700   8246.8136      3187.8645     -0.067609343    4.21875e+08    750            4.6917564e-05
     71800   8222.364       3180.5175     -0.067697773    4.21875e+08    750            4.6917564e-05
     71900   8205.3377      3173.1938     -0.067471243    4.21875e+08    750            4.6917564e-05
     72000   8186.9286      3165.8884     -0.067328049    4.21875e+08    750            4.6917564e-05
     72100   8164.3303      3158.6042     -0.06738321     4.21875e+08    750            4.6917564e-05
     72200   8186.8641      3151.3017     -0.065430631    4.21875e+08    750            4.6917564e-05
     72300   8148.2268      3143.9693     -0.066246946    4.21875e+08    750            4.6917564e-05
     72400   8163.3946      3136.6249     -0.064637035    4.21875e+08    750            4.6917564e-05
     72500   8128.8594      3129.2683     -0.065255319    4.21875e+08    750            4.6917564e-05
     72600   8085.4432      3121.944      -0.066273048    4.21875e+08    750            4.6917564e-05
     72700   8077.1978      3114.6671     -0.065727387    4.21875e+08    750            4.6917564e-05
     72800   8076.2583      3107.4314     -0.064870044    4.21875e+08    750            4.6917564e-05
     72900   8087.0254      3100.2132     -0.063489172    4.21875e+08    750            4.6917564e-05
     73000   8039.9166      3092.9528     -0.064723881    4.21875e+08    750            4.6917564e-05
     73100   8004.4171      3085.7241     -0.065447406    4.21875e+08    750            4.6917564e-05
     73200   7978.2685      3078.5007     -0.065765575    4.21875e+08    750            4.6917564e-05
     73300   7950.5546      3071.287      -0.066177101    4.21875e+08    750            4.6917564e-05
     73400   7912.7109      3064.0934     -0.067059415    4.21875e+08    750            4.6917564e-05
     73500   7876.8147      3056.9128     -0.067866558    4.21875e+08    750            4.6917564e-05
     73600   7867.8475      3049.7803     -0.067456605    4.21875e+08    750            4.6917564e-05
     73700   7842.3764      3042.598      -0.067802267    4.21875e+08    750            4.6917564e-05
     73800   7824.5108      3035.4433     -0.067818312    4.21875e+08    750            4.6917564e-05
[...]
    187700   401.25897      175.065       -0.15177426     4.21875e+08    750            4.6917564e-05
    187800   404.21862      174.17138     -0.15163183     4.21875e+08    750            4.6917564e-05
    187900   413.95508      173.26562     -0.1512001      4.21875e+08    750            4.6917564e-05
    188000   415.49383      172.35087     -0.15115001     4.21875e+08    750            4.6917564e-05
    188100   423.46174      171.45029     -0.15079037     4.21875e+08    750            4.6917564e-05
    188200   425.55564      170.54201     -0.15068922     4.21875e+08    750            4.6917564e-05
    188300   424.07838      169.63491     -0.1507679      4.21875e+08    750            4.6917564e-05
    188400   427.88411      168.72777     -0.15060246     4.21875e+08    750            4.6917564e-05
    188500   426.13979      167.8302      -0.15066942     4.21875e+08    750            4.6917564e-05
    188600   412.85164      166.95383     -0.15124299     4.21875e+08    750            4.6917564e-05
    188700   409.3432       166.08152     -0.15137078     4.21875e+08    750            4.6917564e-05
    188800   416.12465      165.20412     -0.15104303     4.21875e+08    750            4.6917564e-05
    188900   410.06069      164.34516     -0.15127085     4.21875e+08    750            4.6917564e-05
    189000   406.3778       163.49387     -0.15137269     4.21875e+08    750            4.6917564e-05
    189100   414.40756      162.62912     -0.15093708     4.21875e+08    750            4.6917564e-05
    189200   415.18394      161.75812     -0.15080378     4.21875e+08    750            4.6917564e-05
    189300   410.68156      160.88469     -0.15089602     4.21875e+08    750            4.6917564e-05
    189400   419.32879      159.99716     -0.15040979     4.21875e+08    750            4.6917564e-05
    189500   417.36634      159.12403     -0.15040229     4.21875e+08    750            4.6917564e-05
    189600   429.24222      158.24799     -0.14977848     4.21875e+08    750            4.6917564e-05
    189700   423.33939      157.36724     -0.14995666     4.21875e+08    750            4.6917564e-05
    189800   421.33058      156.51661     -0.14995594     4.21875e+08    750            4.6917564e-05
    189900   421.00089      155.65407     -0.14989978     4.21875e+08    750            4.6917564e-05
    190000   421.01733      154.79211     -0.14982981     4.21875e+08    750            4.6917564e-05
    190100   430.22519      153.93216     -0.14933312     4.21875e+08    750            4.6917564e-05
    190200   421.03425      153.09342     -0.14966185     4.21875e+08    750            4.6917564e-05
    190300   418.87912      152.2909      -0.14967662     4.21875e+08    750            4.6917564e-05
    190400   423.28203      151.50274     -0.14938079     4.21875e+08    750            4.6917564e-05
    190500   418.0777       150.72367     -0.14950886     4.21875e+08    750            4.6917564e-05
    190600   417.91093      149.95861     -0.14941819     4.21875e+08    750            4.6917564e-05
    190700   406.69139      149.1963      -0.14984286     4.21875e+08    750            4.6917564e-05
    190800   408.49641      148.44007     -0.14969817     4.21875e+08    750            4.6917564e-05
    190900   412.44456      147.68913     -0.14946469     4.21875e+08    750            4.6917564e-05
    191000   413.89097      146.93459     -0.14933597     4.21875e+08    750            4.6917564e-05
    191100   407.5514       146.20038     -0.14956018     4.21875e+08    750            4.6917564e-05
    191200   406.24931      145.46927     -0.14956189     4.21875e+08    750            4.6917564e-05
    191300   401.65277      144.73857     -0.14971798     4.21875e+08    750            4.6917564e-05
    191400   398.86116      144.02208     -0.149794       4.21875e+08    750            4.6917564e-05
    191500   413.59557      143.29769     -0.14908233     4.21875e+08    750            4.6917564e-05
    191600   409.7861       142.59056     -0.14920545     4.21875e+08    750            4.6917564e-05
    191700   412.21747      141.88174     -0.14903547     4.21875e+08    750            4.6917564e-05
    191800   407.86361      141.14824     -0.14915757     4.21875e+08    750            4.6917564e-05
    191900   401.88165      140.41311     -0.14937507     4.21875e+08    750            4.6917564e-05
    192000   404.85552      139.67859     -0.14917912     4.21875e+08    750            4.6917564e-05
    192100   398.94266      138.95066     -0.14939747     4.21875e+08    750            4.6917564e-05
    192200   400.91281      138.24055     -0.14926385     4.21875e+08    750            4.6917564e-05
    192300   399.54989      137.52333     -0.14927126     4.21875e+08    750            4.6917564e-05
    192400   400.10789      136.8065      -0.14918492     4.21875e+08    750            4.6917564e-05
    192500   397.32908      136.10581     -0.14924415     4.21875e+08    750            4.6917564e-05
    192600   395.99097      135.40887     -0.14924661     4.21875e+08    750            4.6917564e-05
    192700   396.0972       134.71417     -0.14917379     4.21875e+08    750            4.6917564e-05
    192800   395.9639       134.01375     -0.14911419     4.21875e+08    750            4.6917564e-05
    192900   403.74716      133.32687     -0.14870718     4.21875e+08    750            4.6917564e-05
    193000   407.88027      132.64787     -0.14846503     4.21875e+08    750            4.6917564e-05
    193100   417.0575       131.96714     -0.14801146     4.21875e+08    750            4.6917564e-05
    193200   415.64746      131.29546     -0.1480426      4.21875e+08    750            4.6917564e-05
    193300   406.26896      130.62958     -0.14842374     4.21875e+08    750            4.6917564e-05
    193400   405.47048      129.95031     -0.14843405     4.21875e+08    750            4.6917564e-05
    193500   403.71936      129.2904      -0.14849831     4.21875e+08    750            4.6917564e-05
    193600   397.54711      128.64446     -0.14875262     4.21875e+08    750            4.6917564e-05
    193700   394.3557       128.02627     -0.14886859     4.21875e+08    750            4.6917564e-05
    193800   399.3024       127.4091      -0.14859989     4.21875e+08    750            4.6917564e-05
    193900   396.63627      126.79141     -0.14866913     4.21875e+08    750            4.6917564e-05
    194000   394.8634       126.17268     -0.14869328     4.21875e+08    750            4.6917564e-05
    194100   390.569        125.56887     -0.14884288     4.21875e+08    750            4.6917564e-05
    194200   387.81123      124.9734      -0.14893634     4.21875e+08    750            4.6917564e-05
    194300   394.90908      124.36412     -0.14856787     4.21875e+08    750            4.6917564e-05
    194400   389.76341      123.74468     -0.1487437      4.21875e+08    750            4.6917564e-05
    194500   388.02193      123.13444     -0.14876439     4.21875e+08    750            4.6917564e-05
    194600   386.94386      122.55628     -0.1487723      4.21875e+08    750            4.6917564e-05
    194700   377.05143      121.99504     -0.14918885     4.21875e+08    750            4.6917564e-05
    194800   371.3622       121.43686     -0.14943212     4.21875e+08    750            4.6917564e-05
    194900   375.22132      120.87499     -0.14924274     4.21875e+08    750            4.6917564e-05
    195000   368.37099      120.31332     -0.1495154      4.21875e+08    750            4.6917564e-05
    195100   368.88859      119.77238     -0.14945027     4.21875e+08    750            4.6917564e-05
    195200   364.8926       119.21922     -0.14957592     4.21875e+08    750            4.6917564e-05
    195300   361.83207      118.68344     -0.14966572     4.21875e+08    750            4.6917564e-05
    195400   355.57053      118.15285     -0.14991442     4.21875e+08    750            4.6917564e-05
    195500   346.45239      117.63146     -0.15029539     4.21875e+08    750            4.6917564e-05
    195600   348.40496      117.11918     -0.15017054     4.21875e+08    750            4.6917564e-05
    195700   347.73748      116.61787     -0.15016682     4.21875e+08    750            4.6917564e-05
    195800   358.76041      116.11872     -0.1496403      4.21875e+08    750            4.6917564e-05
    195900   362.55147      115.63024     -0.14943584     4.21875e+08    750            4.6917564e-05
    196000   359.79482      115.14306     -0.14951819     4.21875e+08    750            4.6917564e-05
    196100   362.67719      114.64974     -0.14935297     4.21875e+08    750            4.6917564e-05
    196200   365.00181      114.13812     -0.14920085     4.21875e+08    750            4.6917564e-05
    196300   364.71592      113.61533     -0.14916675     4.21875e+08    750            4.6917564e-05
    196400   357.83937      113.10153     -0.14942982     4.21875e+08    750            4.6917564e-05
    196500   356.86217      112.58395     -0.14941958     4.21875e+08    750            4.6917564e-05
    196600   358.15056      112.0449      -0.14930887     4.21875e+08    750            4.6917564e-05
    196700   362.20665      111.47774     -0.14907586     4.21875e+08    750            4.6917564e-05
    196800   359.19447      110.89639     -0.14917083     4.21875e+08    750            4.6917564e-05
    196900   360.18459      110.3256      -0.14908314     4.21875e+08    750            4.6917564e-05
    197000   369.38712      109.74044     -0.14864398     4.21875e+08    750            4.6917564e-05
    197100   367.80102      109.15964     -0.14867936     4.21875e+08    750            4.6917564e-05
    197200   371.95894      108.58256     -0.14844297     4.21875e+08    750            4.6917564e-05
    197300   376.81327      107.98518     -0.14816729     4.21875e+08    750            4.6917564e-05
    197400   371.24911      107.385       -0.14836673     4.21875e+08    750            4.6917564e-05
    197500   364.98563      106.79733     -0.14860631     4.21875e+08    750            4.6917564e-05
    197600   362.90434      106.19861     -0.14868054     4.21875e+08    750            4.6917564e-05
    197700   370.31205      105.61057     -0.1483231      4.21875e+08    750            4.6917564e-05
    197800   373.07437      105.0204      -0.14816069     4.21875e+08    750            4.6917564e-05
    197900   367.57809      104.42951     -0.14835089     4.21875e+08    750            4.6917564e-05
    198000   364.24421      103.84388     -0.14842959     4.21875e+08    750            4.6917564e-05
    198100   355.15597      103.26742     -0.14876184     4.21875e+08    750            4.6917564e-05
    198200   357.69348      102.7019      -0.1485557      4.21875e+08    750            4.6917564e-05
    198300   355.44974      102.15142     -0.14854812     4.21875e+08    750            4.6917564e-05
    198400   352.41586      101.60431     -0.14857177     4.21875e+08    750            4.6917564e-05
    198500   355.54372      101.0457      -0.14834426     4.21875e+08    750            4.6917564e-05
    198600   355.37995      100.47606     -0.14827046     4.21875e+08    750            4.6917564e-05
    198700   354.14412      99.919179     -0.14823588     4.21875e+08    750            4.6917564e-05
    198800   359.01224      99.368175     -0.14792361     4.21875e+08    750            4.6917564e-05
    198900   356.894        98.816004     -0.14792018     4.21875e+08    750            4.6917564e-05
    199000   355.5585       98.264139     -0.14787063     4.21875e+08    750            4.6917564e-05
    199100   352.86731      97.739375     -0.14787849     4.21875e+08    750            4.6917564e-05
    199200   353.36663      97.227038     -0.14772498     4.21875e+08    750            4.6917564e-05
    199300   349.02504      96.711264     -0.14778402     4.21875e+08    750            4.6917564e-05
    199400   347.81952      96.181435     -0.14770061     4.21875e+08    750            4.6917564e-05
    199500   348.93328      95.625082     -0.14752156     4.21875e+08    750            4.6917564e-05
    199600   358.40405      95.053217     -0.14698628     4.21875e+08    750            4.6917564e-05
    199700   352.70483      94.463033     -0.14713367     4.21875e+08    750            4.6917564e-05
    199800   348.3138       93.862239     -0.147221       4.21875e+08    750            4.6917564e-05
    199900   347.14237      93.266687     -0.14717997     4.21875e+08    750            4.6917564e-05
    200000   353.14469      92.660654     -0.14683266     4.21875e+08    750            4.6917564e-05
    200100   355.3749       92.040725     -0.14666545     4.21875e+08    750            4.6917564e-05
    200200   352.02977      91.417281     -0.14674344     4.21875e+08    750            4.6917564e-05
    200300   350.9077       90.787316     -0.14672882     4.21875e+08    750            4.6917564e-05
    200400   351.40563      90.190956     -0.14662425     4.21875e+08    750            4.6917564e-05
    200500   346.22483      89.603087     -0.14678313     4.21875e+08    750            4.6917564e-05
    200600   344.52425      89.000922     -0.14680842     4.21875e+08    750            4.6917564e-05
    200700   342.97208      88.39335      -0.14682095     4.21875e+08    750            4.6917564e-05
    200800   358.86869      87.753853     -0.14605523     4.21875e+08    750            4.6917564e-05
    200900   348.47146      87.098351     -0.14646627     4.21875e+08    750            4.6917564e-05
    201000   343.63118      86.454287     -0.14661733     4.21875e+08    750            4.6917564e-05
    201100   344.21637      85.834188     -0.14652604     4.21875e+08    750            4.6917564e-05
    201200   345.32642      85.200072     -0.14640443     4.21875e+08    750            4.6917564e-05
    201300   344.94291      84.580449     -0.14634647     4.21875e+08    750            4.6917564e-05
    201400   348.67773      83.980142     -0.14610057     4.21875e+08    750            4.6917564e-05
    201500   349.5389       83.383257     -0.14597936     4.21875e+08    750            4.6917564e-05
    201600   351.06936      82.772447     -0.14582311     4.21875e+08    750            4.6917564e-05
    201700   349.61206      82.171181     -0.14580619     4.21875e+08    750            4.6917564e-05
    201800   359.52108      81.559865     -0.14527805     4.21875e+08    750            4.6917564e-05
    201900   358.92495      80.945238     -0.14521814     4.21875e+08    750            4.6917564e-05
    202000   363.53543      80.327292     -0.14491986     4.21875e+08    750            4.6917564e-05
    202100   364.94465      79.684788     -0.14475672     4.21875e+08    750            4.6917564e-05
    202200   363.00618      79.034516     -0.14474392     4.21875e+08    750            4.6917564e-05
    202300   375.61891      78.409467     -0.14406672     4.21875e+08    750            4.6917564e-05
    202400   370.46359      77.793039     -0.14417228     4.21875e+08    750            4.6917564e-05
    202500   375.5229       77.172879     -0.14382197     4.21875e+08    750            4.6917564e-05
    202600   370.60272      76.535995     -0.14393759     4.21875e+08    750            4.6917564e-05
    202700   372.812        75.884436     -0.14373341     4.21875e+08    750            4.6917564e-05
    202800   373.86334      75.216728     -0.14358316     4.21875e+08    750            4.6917564e-05
    202900   364.8562       74.545444     -0.14386921     4.21875e+08    750            4.6917564e-05
    203000   361.79511      73.881536     -0.14389933     4.21875e+08    750            4.6917564e-05
    203100   363.31629      73.223401     -0.14373021     4.21875e+08    750            4.6917564e-05
    203200   356.12756      72.561029     -0.14396134     4.21875e+08    750            4.6917564e-05
    203300   354.08599      71.90962      -0.14396491     4.21875e+08    750            4.6917564e-05
    203400   356.19221      71.272275     -0.14377571     4.21875e+08    750            4.6917564e-05
    203500   356.788        70.647181     -0.143641       4.21875e+08    750            4.6917564e-05
    203600   354.72787      70.033084     -0.1436071      4.21875e+08    750            4.6917564e-05
    203700   358.76107      69.406931     -0.14329957     4.21875e+08    750            4.6917564e-05
    203800   350.52615      68.782896     -0.14356446     4.21875e+08    750            4.6917564e-05
    203900   353.22653      68.181206     -0.14332739     4.21875e+08    750            4.6917564e-05
    204000   357.68332      67.574061     -0.143017       4.21875e+08    750            4.6917564e-05
    204100   362.72007      66.973333     -0.14267683     4.21875e+08    750            4.6917564e-05
    204200   362.32077      66.392217     -0.14257885     4.21875e+08    750            4.6917564e-05
    204300   364.58362      65.80955      -0.14235914     4.21875e+08    750            4.6917564e-05
    204400   354.64167      65.234968     -0.1426658      4.21875e+08    750            4.6917564e-05
    204500   355.00841      64.662698     -0.14252051     4.21875e+08    750            4.6917564e-05
    204600   356.93317      64.088182     -0.14230746     4.21875e+08    750            4.6917564e-05
    204700   365.39881      63.500554     -0.14179844     4.21875e+08    750            4.6917564e-05
    204800   367.03205      62.902545     -0.1416094      4.21875e+08    750            4.6917564e-05
    204900   368.4052       62.299532     -0.14144642     4.21875e+08    750            4.6917564e-05
    205000   371.32158      61.691075     -0.14121114     4.21875e+08    750            4.6917564e-05
    205100   371.44867      61.0751       -0.14110362     4.21875e+08    750            4.6917564e-05
    205200   378.71823      60.449985     -0.14068877     4.21875e+08    750            4.6917564e-05
    205300   380.92813      59.801694     -0.14049342     4.21875e+08    750            4.6917564e-05
    205400   374.94759      59.14377      -0.14065727     4.21875e+08    750            4.6917564e-05
    205500   373.06665      58.439381     -0.14065039     4.21875e+08    750            4.6917564e-05
    205600   371.6297       57.798469     -0.14061403     4.21875e+08    750            4.6917564e-05
    205700   378.84415      57.142144     -0.14016799     4.21875e+08    750            4.6917564e-05
    205800   380.98372      56.455649     -0.13996254     4.21875e+08    750            4.6917564e-05
    205870   386.44307      55.975664     -0.13964833     4.21875e+08    750            4.6917564e-05
Loop time of 8.09133 on 1 procs for 100000 steps with 140 atoms

Performance: 5.339 ns/day, 4.495 hours/ns, 12358.915 timesteps/s, 1.730 Matom-step/s
99.1% CPU use with 1 MPI tasks x 1 OpenMP threads

MPI task timing breakdown:
Section |  min time  |  avg time  |  max time  |%varavg| %total
---------------------------------------------------------------
Pair    | 5.1914     | 5.1914     | 5.1914     |   0.0 | 64.16
Bond    | 2.0262     | 2.0262     | 2.0262     |   0.0 | 25.04
Neigh   | 0.00054516 | 0.00054516 | 0.00054516 |   0.0 |  0.01
Comm    | 0.0083513  | 0.0083513  | 0.0083513  |   0.0 |  0.10
Output  | 0.19861    | 0.19861    | 0.19861    |   0.0 |  2.45
Modify  | 0.63269    | 0.63269    | 0.63269    |   0.0 |  7.82
Other   |            | 0.03348    |            |       |  0.41

Nlocal:            140 ave         140 max         140 min
Histogram: 1 0 0 0 0 0 0 0 0 0
Nghost:              0 ave           0 max           0 min
Histogram: 1 0 0 0 0 0 0 0 0 0
Neighs:           3414 ave        3414 max        3414 min
Histogram: 1 0 0 0 0 0 0 0 0 0

Total # of neighbors = 3414
Ave neighs/atom = 24.385714
Ave special neighs/atom = 5.9142857
Neighbor list builds = 3
Dangerous builds = 0


# write_data data.polymer
Total wall time: 0:00:16
